LAMMPS (21 Jul 2020)
echo    both
#package gpu 1

#------------- USER Variables ----------------
variable        filename   string    block_28_14_14
variable        heatflux   equal    20.0
variable        dump_freq  equal  100

# boltzmann constant in appropriate units
variable        boltz_real     equal 0.0019872041
variable        boltz_metal    equal 8.617342e-5
variable        boltz          equal ${boltz_metal}
variable        boltz          equal 8.617342e-05

variable        lattice_const  equal 3.57772
variable        starttemp    equal 300

variable xmax equal 6.0
variable xmin equal -6.0
variable ymax equal 6.0
variable ymin equal -6.0
variable zmax equal 6.0
variable zmin equal -6.0
#----------------------------------------------
##########################################
units           metal
atom_style spin
atom_modify map array
#atom_style      atomic

boundary        p p p

#read_restart    config5
lattice         fcc ${lattice_const}
lattice         fcc 3.57772
Lattice spacing in x,y,z = 3.5777200 3.5777200 3.5777200
region sim_box block ${xmin} ${xmax} ${ymin} ${ymax} ${zmin} ${zmax} # units for region are lattice (default)
region sim_box block -6 ${xmax} ${ymin} ${ymax} ${zmin} ${zmax} 
region sim_box block -6 6 ${ymin} ${ymax} ${zmin} ${zmax} 
region sim_box block -6 6 -6 ${ymax} ${zmin} ${zmax} 
region sim_box block -6 6 -6 6 ${zmin} ${zmax} 
region sim_box block -6 6 -6 6 -6 ${zmax} 
region sim_box block -6 6 -6 6 -6 6 
create_box 1 sim_box
Created orthogonal box = (-21.466320 -21.466320 -21.466320) to (21.466320 21.466320 21.466320)
  2 by 2 by 4 MPI processor grid
#region atom_box block -24 -20 -12 -10 -12 -10
region atom_box block ${xmin} ${xmax} ${ymin} ${ymax} ${zmin} ${zmax}
region atom_box block -6 ${xmax} ${ymin} ${ymax} ${zmin} ${zmax}
region atom_box block -6 6 ${ymin} ${ymax} ${zmin} ${zmax}
region atom_box block -6 6 -6 ${ymax} ${zmin} ${zmax}
region atom_box block -6 6 -6 6 ${zmin} ${zmax}
region atom_box block -6 6 -6 6 -6 ${zmax}
region atom_box block -6 6 -6 6 -6 6
create_atoms 1 region atom_box
Created 6912 atoms
  create_atoms CPU = 0.002 seconds

mass	        1 55.845
variable        mid_val        equal    xhi/2.0

# APT: these commands seem to be mixing lattice and box units
variable        low_val        equal    ${mid_val}-4*${lattice_const}
variable        low_val        equal    10.73316-4*${lattice_const}
variable        low_val        equal    10.73316-4*3.57772
variable        high_val       equal    ${mid_val}+4*${lattice_const}
variable        high_val       equal    10.73316+4*${lattice_const}
variable        high_val       equal    10.73316+4*3.57772

# APT: This is just another way of saying max_val = xhi
variable        max_val        equal    ${high_val}+${low_val}
variable        max_val        equal    25.04404+${low_val}
variable        max_val        equal    25.04404+-3.57772

include pot_iron.mod
#pair_style eam/fs
#pair_coeff * * FeVoter-ChenRecheck.fs Fe

pair_style      hybrid/overlay snap zbl 4.0 4.8 spin/exchange/biquadratic 5.0
pair_coeff      * * snap Fe_pot_snappy.snapcoeff Fe_pot_snappy.snapparam Fe
SNAP Element = Fe, Radius 0.5, Weight 1 
SNAP keyword rcutfac 4.439599259 
SNAP keyword twojmax 6 
SNAP keyword rfac0 0.99363 
SNAP keyword rmin0 0.0 
SNAP keyword bzeroflag 1 
SNAP keyword quadraticflag 0 
pair_coeff      * * zbl 26 26
pair_coeff      * * spin/exchange/biquadratic biquadratic 5.0 0.2827 -4.747 0.7810 -0.03619 -2.973 0.5273

# Setup neighbor style
neighbor 1.0    bin
neigh_modify    every 10 check yes delay 20

fix             AN all precession/spin cubic 0.001 0.0005 1.0 0.0 0.0 0.0 1.0 0.0 0.0 0.0 1.0
fix_modify      AN energy yes
fix 1z1         all nve/spin lattice yes
set             type 1 spin 2.2 0.0 0.0 1.0
  6912 settings made for spin

# Setup output
thermo          1
thermo_style custom step temp pe press pxx pyy pzz pxy pxz pyz lx ly lz vol
thermo_modify norm no

#pair_style      eam/alloy
#pair_coeff      * * FeNiCr_Bonny_2013_ptDef.eam.alloy Fe Cr Ni

set             atom * type 1
  6912 settings made for type
neighbor        2.0 bin
neigh_modify    every 5 delay 0 check yes
#group		myg type 1
#variable        st equal ${starttemp}*1.5
#velocity        all create ${st} 87287 mom yes loop geom

#fix             thermostat all npt temp ${starttemp} ${starttemp} 10.0 iso 0.0 0.0 1000.0
#fix             thermostat all langevin ${starttemp} ${starttemp} 0.1 618341
#fix             1 all nve
#fix		rig myg rigid/nve group 1 myg langevin 500 500 0.005 1041
#velocity        all set 5 NULL NULL sum yes units box

######################################################################
#region          lhs block -${high_val} -${low_val} EDGE EDGE EDGE EDGE units box
#region          rhs block  ${low_val} ${high_val} EDGE EDGE EDGE EDGE units box
#group           lhs_group dynamic all region lhs every 1
#group           rhs_group dynamic all region rhs every 1
#fix		hot all langevin 500 500 0.005 1041
#fix		cold rhs_group langevin 100 100 0.01 1041
#fix             qin lhs_group heat 1 ${heatflux}
#fix             qout rhs_group heat 1 -${heatflux}

###########################################################################
#compute 	mytemp all temp/com
#fix             melt all ttm 1.2470e-5 0.087614 0.00536462 29.5917 47.5679 58.4613 28 14 14 temp_1800_nx_28_ny_14_nz_14 ${dump_freq} ${filename}.Te lang flang conv no 50
#fix      	flang all langevin 0.0 0.0 1.88735 1041 ttm
#fix             spin3 all langevin/spin 300 0.1 1041 lang flang
fix             melt all ttm input_ttm temp_1800_nx_10_ny_10_nz_10 1 electronF.Te lang flang conv no 50 walls 0 0 1 spin spin3
#fix             spin3 all langevin/spin 300 0.1 1041 lang flang
fix             flang all langevin 0.0 0.0 1.88735 1041 ttm
fix             spin3 all langevin/spin 300 0.1 1041 lang flang
fix_modify	flang energy yes
#fix_modify      flang temp mytemp
###########################################################################

compute              compute_spin all spin
variable mag_x       equal c_compute_spin[1]
variable mag_y       equal c_compute_spin[2]
variable mag_z       equal c_compute_spin[3]
variable mag_norm    equal c_compute_spin[4]
variable mag_eng     equal c_compute_spin[5]
variable temp_mag    equal c_compute_spin[6]

fix             avespin all ave/time 1 1 1 v_mag_x v_mag_y v_mag_z v_mag_norm v_mag_eng v_temp_mag file average_spin

# output
compute         pe all pe/atom
compute         ke all ke/atom
variable        temp atom c_ke/1.5/v_boltz

dump            1z1 all custom ${dump_freq} ${filename}.dumpovito id type x y z c_ke c_pe
dump            1z1 all custom 100 ${filename}.dumpovito id type x y z c_ke c_pe
dump            1z1 all custom 100 block_28_14_14.dumpovito id type x y z c_ke c_pe

compute         temp_chunk all chunk/atom bin/1d x lower 1.0
fix             4 all ave/chunk 1 ${dump_freq} ${dump_freq} temp_chunk v_temp file ${filename}.tmpProfile
fix             4 all ave/chunk 1 100 ${dump_freq} temp_chunk v_temp file ${filename}.tmpProfile
fix             4 all ave/chunk 1 100 100 temp_chunk v_temp file ${filename}.tmpProfile
fix             4 all ave/chunk 1 100 100 temp_chunk v_temp file block_28_14_14.tmpProfile

# run
timestep        0.001
thermo_style 	custom time step temp lx ly lz press pxx pyy pzz etotal epair enthalpy vol density f_melt[1] f_melt[2] f_flang
WARNING: New thermo_style command, previous thermo_modify settings will be lost (../output.cpp:694)
thermo          1
run             10000
Neighbor list info ...
  update every 5 steps, delay 0 steps, check yes
  max neighbors/atom: 2000, page size: 100000
  master list distance cutoff = 7
  ghost atom cutoff = 7
  binsize = 3.5, bins = 13 13 13
  3 neighbor lists, perpetual/occasional/extra = 3 0 0
  (1) pair snap, perpetual
      attributes: full, newton on
      pair build: full/bin/atomonly
      stencil: full/bin/3d
      bin: standard
  (2) pair zbl, perpetual, half/full from (1)
      attributes: half, newton on
      pair build: halffull/newton
      stencil: none
      bin: none
  (3) pair spin/exchange/biquadratic, perpetual, copy from (1)
      attributes: full, newton on
      pair build: copy
      stencil: none
      bin: none
Per MPI rank memory allocation (min/avg/max) = 9.313 | 9.356 | 9.379 Mbytes
Time Step Temp Lx Ly Lz Press Pxx Pyy Pzz TotEng E_pair Enthalpy Volume Density f_melt[1] f_melt[2] f_flang 
           0        0            0     42.93264     42.93264     42.93264   -171748.78   -171748.78   -171748.78   -171748.78   -56814.242   -56814.242   -65297.176    79133.939    8.0998001    155.62353            0           -0 
       0.001        1   0.47591482     42.93264     42.93264     42.93264   -147232.29   -147269.97    -147172.8   -147254.11   -56757.194   -56756.274   -64029.221    79133.939    8.0998001     153.9166    1.7069295  -0.84987063 
       0.002        2    2.3625428     42.93264     42.93264     42.93264   -129219.28   -129133.57   -129092.71   -129431.56   -56706.887   -56705.661   -63089.224    79133.939    8.0998001    152.18869    1.7279064   -2.5325325 
       0.003        3    4.2075938     42.93264     42.93264     42.93264   -116966.47    -117036.4   -116813.46   -117049.56   -56666.301   -56664.902   -62443.454    79133.939    8.0998001    150.58174    1.6069533   -4.1739598 
       0.004        4    6.0624769     42.93264     42.93264     42.93264   -106441.37   -106336.78   -106363.52   -106623.82   -56625.581   -56624.055   -61882.883    79133.939    8.0998001    148.90395    1.6777868   -5.8212259 
       0.005        5     7.914986     42.93264     42.93264     42.93264   -99520.061   -99462.733   -99398.668   -99698.782   -56595.553   -56593.945       -61511    79133.939    8.0998001    147.27642     1.627534   -7.4731101 
       0.006        6    9.7628365     42.93264     42.93264     42.93264    -93222.46   -93117.019   -93274.834   -93275.526   -56564.725   -56563.055   -61169.124    79133.939    8.0998001    145.63377    1.6426443   -9.1276189 
       0.007        7    11.616325     42.93264     42.93264     42.93264   -88147.883   -88160.315   -88232.898   -88050.437    -56536.64   -56534.932   -60890.398    79133.939    8.0998001    144.02198    1.6117882   -10.790783 
       0.008        8    13.408916     42.93264     42.93264     42.93264   -84226.705   -84290.122   -84383.351   -84006.643   -56511.337   -56509.575   -60671.423    79133.939    8.0998001    142.43343    1.5885568   -12.404271 
       0.009        9    15.178746     42.93264     42.93264     42.93264   -81491.243   -81564.909   -81649.758   -81259.062   -56491.098   -56489.287   -60516.075    79133.939    8.0998001    140.76397    1.6694575   -14.015381 
        0.01       10    16.945026     42.93264     42.93264     42.93264   -79083.938    -79259.79   -79110.567   -78881.456   -56470.909   -56469.045   -60376.985    79133.939    8.0998001    139.18399    1.5799769   -15.636954 
       0.011       11    18.577596     42.93264     42.93264     42.93264   -76989.663   -77199.757   -77051.248   -76717.983   -56451.623    -56449.68    -60254.26    79133.939    8.0998001    137.75368    1.4303076   -17.168957 
       0.012       12    20.173017     42.93264     42.93264     42.93264   -75333.929    -75503.44   -75415.445   -75082.903    -56434.72   -56432.675   -60155.577    79133.939    8.0998001     136.1845    1.5691869   -18.686799 
       0.013       13    21.679215     42.93264     42.93264     42.93264   -74130.575   -74168.021   -74184.903     -74038.8   -56422.057   -56419.888   -60083.479    79133.939    8.0998001    134.84811    1.3363898   -20.153753 
       0.014       14    23.058957     42.93264     42.93264     42.93264   -73519.942   -73377.415     -73750.3    -73432.11    -56411.16   -56408.837   -60042.422    79133.939    8.0998001    133.41133     1.436779   -21.536531 
       0.015       15    24.440618     42.93264     42.93264     42.93264   -72538.102   -72353.008   -72800.856   -72460.441   -56397.805   -56395.283   -59980.572    79133.939    8.0998001      131.958     1.453328   -22.957364 
       0.016       16    25.763086     42.93264     42.93264     42.93264   -71840.817   -71650.562   -72162.366   -71709.523   -56387.365   -56384.631   -59935.693    79133.939    8.0998001      130.554    1.4039989   -24.351787 
       0.017       17    27.058884     42.93264     42.93264     42.93264   -71529.127   -71357.383   -71831.728   -71398.271   -56379.417    -56376.44   -59912.349    79133.939    8.0998001    129.11182    1.4421781   -25.754396 
       0.018       18    28.308761     42.93264     42.93264     42.93264    -70553.39   -70310.192   -70905.219   -70444.761   -56365.576   -56362.314   -59850.316    79133.939    8.0998001    127.78103    1.3307989   -27.153031 
       0.019       19    29.497845     42.93264     42.93264     42.93264   -69910.176   -69752.516   -70240.329   -69737.684   -56354.467   -56350.884   -59807.437    79133.939    8.0998001    126.37697    1.4040522    -28.52411 
        0.02       20    30.752141     42.93264     42.93264     42.93264   -69554.258    -69311.69    -69836.65   -69514.433    -56344.85   -56340.917   -59780.241    79133.939    8.0998001    124.84151    1.5354636   -29.996954 
       0.021       21    31.915026     42.93264     42.93264     42.93264   -69272.654   -69084.183   -69547.341   -69186.437   -56337.772   -56333.453   -59759.254    79133.939    8.0998001    123.55345     1.288055   -31.419906 
       0.022       22    32.917129     42.93264     42.93264     42.93264     -68588.2   -68429.618   -68887.235   -68447.747   -56328.494   -56323.759    -59716.17    79133.939    8.0998001    122.25104    1.3024103   -32.733348 
       0.023       23    33.787318     42.93264     42.93264     42.93264   -68365.547   -68024.595   -68823.211   -68248.835   -56322.197   -56317.001   -59698.875    79133.939    8.0998001    121.12344    1.1276061   -33.965414 
       0.024       24    34.610064     42.93264     42.93264     42.93264   -68078.536   -67818.185   -68418.257   -67999.167   -56314.613   -56308.937   -59677.116    79133.939    8.0998001      119.814      1.30944   -35.186576 
       0.025       25    35.485189     42.93264     42.93264     42.93264   -67914.264   -67733.303   -68183.967   -67825.521    -56309.93   -56303.725   -59664.319    79133.939    8.0998001    118.47453     1.339468    -36.49806 
       0.026       26    36.297553     42.93264     42.93264     42.93264   -67807.982   -67551.769   -68015.334   -67856.843   -56305.039   -56298.265   -59654.179    79133.939    8.0998001     117.1965    1.2780319    -37.79236 
       0.027       27    36.963386     42.93264     42.93264     42.93264   -67711.473   -67606.324   -67826.718   -67701.378   -56300.824    -56293.45   -59645.197    79133.939    8.0998001    116.10927    1.0872325   -38.980941 
       0.028       28    37.544914     42.93264     42.93264     42.93264   -67347.098   -67193.033   -67521.175   -67327.085   -56295.357   -56287.352   -59621.732    79133.939    8.0998001     114.9329    1.1763611   -40.125772 
       0.029       29    38.142473     42.93264     42.93264     42.93264   -67310.195   -67043.174   -67580.076   -67307.336   -56293.803   -56285.134   -59618.356    79133.939    8.0998001    113.75164    1.1812595   -41.321774 
        0.03       30    38.676225     42.93264     42.93264     42.93264   -67228.901   -67151.749    -67188.34   -67346.612   -56288.276   -56278.922   -59608.814    79133.939    8.0998001    112.65067    1.1009699   -42.480801 
       0.031       31    39.105491     42.93264     42.93264     42.93264   -66613.926   -66564.795   -66631.223    -66645.76    -56282.18   -56272.111   -59572.343    79133.939    8.0998001    111.56728    1.0833952   -43.580609 
       0.032       32    39.557057     42.93264     42.93264     42.93264   -66646.573   -66616.903   -66744.542   -66578.273   -56279.521   -56268.714   -59571.297    79133.939    8.0998001    110.32298    1.2443037     -44.7265 
       0.033       33    40.016049     42.93264     42.93264     42.93264   -66468.418    -66351.06   -66527.637   -66526.557   -56275.636   -56264.057   -59558.613    79133.939    8.0998001    109.15637    1.1666059   -45.905342 
       0.034       34    40.384457     42.93264     42.93264     42.93264    -66484.13   -66352.494   -66613.382   -66486.513   -56271.629   -56259.262   -59555.381    79133.939    8.0998001    108.09107    1.0652975   -47.022286 
       0.035       35    40.721161     42.93264     42.93264     42.93264   -66316.386   -66287.926   -66413.368   -66247.865   -56267.369   -56254.198   -59542.837    79133.939    8.0998001    106.96294    1.1281325   -48.132784 
       0.036       36    41.047624     42.93264     42.93264     42.93264   -66070.046   -66220.103   -66013.225    -65976.81   -56263.745   -56249.732   -59527.046    79133.939    8.0998001    105.81217    1.1507685   -49.257036 
       0.037       37    41.348192     42.93264     42.93264     42.93264   -65892.019   -65970.471   -65849.429   -65856.157   -56260.175   -56245.311   -59514.682    79133.939    8.0998001    104.65869    1.1534856   -50.377496 
       0.038       38    41.622513     42.93264     42.93264     42.93264   -65892.466   -65914.524   -65819.811   -65943.062   -56257.213   -56241.486   -59511.742    79133.939    8.0998001    103.57175    1.0869385   -51.491435 
       0.039       39    41.802179     42.93264     42.93264     42.93264    -66033.72   -66067.959   -65943.624   -66089.576   -56253.508   -56236.913   -59515.014    79133.939    8.0998001    102.62654   0.94520296    -52.53418 
        0.04       40    41.977846     42.93264     42.93264     42.93264    -65858.85   -65973.246   -65764.617   -65838.688   -56251.338   -56233.836   -59504.207    79133.939    8.0998001    101.50749    1.1190543    -53.59017 
       0.041       41    42.162445     42.93264     42.93264     42.93264   -65806.382   -65812.747   -65783.754   -65822.646   -56248.836   -56230.412   -59499.113    79133.939    8.0998001    100.45556    1.0519258   -54.676076 
       0.042       42    42.371229     42.93264     42.93264     42.93264   -65632.302   -65750.269    -65553.38   -65593.258   -56246.313   -56226.966   -59487.992    79133.939    8.0998001    99.249633    1.2059319   -55.790241 
       0.043       43    42.500244     42.93264     42.93264     42.93264   -65580.253   -65693.404   -65608.875   -65438.481   -56245.963   -56225.681   -59485.072    79133.939    8.0998001    98.318296    0.9313367   -56.840192 
       0.044       44    42.528874     42.93264     42.93264     42.93264   -65413.717   -65582.029   -65321.498   -65337.622   -56243.946   -56222.713   -59474.829    79133.939    8.0998001    97.315502    1.0027943   -57.809235 
       0.045       45    42.569208     42.93264     42.93264     42.93264   -65186.466   -65398.376   -65157.803   -65003.219   -56240.514   -56218.333   -59460.173    79133.939    8.0998001    96.384079   0.93142253   -58.787016 
       0.046       46     42.61823     42.93264     42.93264     42.93264   -65138.697   -65302.913    -65067.71   -65045.469   -56238.392   -56215.271   -59455.692    79133.939    8.0998001    95.371673    1.0124057   -59.770468 
       0.047       47    42.649937     42.93264     42.93264     42.93264   -65112.844   -65343.991   -65064.072   -64930.469   -56236.658   -56212.609    -59452.68    79133.939    8.0998001    94.457218   0.91445562   -60.739636 
       0.048       48    42.683311     42.93264     42.93264     42.93264   -65149.931   -65287.536   -64961.092   -65201.164   -56235.266   -56210.282    -59453.12    79133.939    8.0998001    93.434721    1.0224964   -61.707177 
       0.049       49    42.737474     42.93264     42.93264     42.93264   -65008.368   -65311.326   -64763.455   -64950.324   -56233.422   -56207.509   -59444.285    79133.939    8.0998001    92.468206   0.96651573   -62.691089 
        0.05       50      42.6887     42.93264     42.93264     42.93264   -65046.116   -65317.614   -64854.409   -64966.325   -56234.463   -56207.602    -59447.19    79133.939    8.0998001    91.596297   0.87190898   -63.586106 
       0.051       51    42.596037     42.93264     42.93264     42.93264   -65092.892   -65321.909   -64905.534   -65051.234   -56233.054   -56205.252   -59448.091    79133.939    8.0998001    90.731383   0.86491375    -64.43631 
       0.052       52    42.527001     42.93264     42.93264     42.93264   -65084.046   -65256.576   -64715.198   -65280.365   -56230.246   -56201.517   -59444.846    79133.939    8.0998001    89.879648   0.85173528   -65.294821 
       0.053       53    42.505997     42.93264     42.93264     42.93264   -65089.016   -65308.449    -64681.74   -65276.859   -56230.204   -56200.566   -59445.049    79133.939    8.0998001    88.909765   0.96988276   -66.190043 
       0.054       54    42.563711     42.93264     42.93264     42.93264   -64715.641   -64886.201   -64230.379   -65030.344   -56229.481   -56198.944   -59425.885    79133.939    8.0998001     87.93414   0.97562455   -67.142584 
       0.055       55     42.65501     42.93264     42.93264     42.93264   -64606.022   -64661.529   -64185.429   -64971.107    -56227.46   -56196.038    -59418.45    79133.939    8.0998001    87.004001   0.93013947   -68.098167 
       0.056       56    42.739469     42.93264     42.93264     42.93264   -64586.144   -64746.271   -64015.915   -64996.245    -56227.16   -56194.879   -59417.168    79133.939    8.0998001    86.026772   0.97722923   -69.038754 
       0.057       57     42.85312     42.93264     42.93264     42.93264   -64543.633   -64662.393   -64005.498   -64963.007   -56225.601   -56192.496    -59413.51    79133.939    8.0998001    85.093598   0.93317345   -69.968665 
       0.058       58    42.980679     42.93264     42.93264     42.93264   -64633.771   -64812.223   -64188.471    -64900.62   -56225.619   -56191.705   -59417.979    79133.939    8.0998001    84.161622   0.93197642   -70.894442 
       0.059       59    43.145556     42.93264     42.93264     42.93264    -64813.18   -65035.404   -64423.183   -64980.953   -56224.889    -56190.19   -59426.111    79133.939    8.0998001    83.241792   0.91982984   -71.825636 
        0.06       60    43.296633     42.93264     42.93264     42.93264   -64889.825   -64925.024    -64660.53   -65083.921   -56222.933   -56187.471    -59427.94    79133.939    8.0998001    82.383575   0.85821686   -72.725974 
       0.061       61    43.446641     42.93264     42.93264     42.93264   -64762.858   -64751.444   -64552.513   -64984.617   -56221.085   -56184.889   -59419.822    79133.939    8.0998001    81.505171   0.87840426   -73.605769 
       0.062       62    43.595661     42.93264     42.93264     42.93264   -64623.112   -64540.526   -64347.943   -64980.867   -56222.009   -56185.096   -59413.843    79133.939    8.0998001    80.715569   0.78960153   -74.450447 
       0.063       63    43.728374     42.93264     42.93264     42.93264    -64838.35   -64746.657   -64592.948   -65175.445   -56223.339   -56185.729   -59425.804    79133.939    8.0998001    79.909877   0.80569275   -75.259854 
       0.064       64    43.890137     42.93264     42.93264     42.93264    -65055.25    -64755.47   -64952.408   -65457.873   -56222.959   -56184.692   -59436.137    79133.939    8.0998001    79.138995   0.77088111   -76.060558 
       0.065       65    44.040599     42.93264     42.93264     42.93264   -65029.802   -64683.172   -64839.777   -65566.459   -56224.032   -56185.144   -59435.953    79133.939    8.0998001    78.414219   0.72477625   -76.823652 
       0.066       66    44.262277     42.93264     42.93264     42.93264   -65028.325   -64716.169   -64943.808   -65424.999    -56222.26    -56182.78   -59434.108    79133.939    8.0998001    77.573161   0.84105864   -77.612845 
       0.067       67    44.622763     42.93264     42.93264     42.93264   -65041.403   -64880.265   -64775.843     -65468.1   -56223.228   -56183.191   -59435.722    79133.939    8.0998001      76.6872   0.88596087   -78.483017 
       0.068       68    45.006164     42.93264     42.93264     42.93264   -65374.694   -65288.655   -65035.083   -65800.345   -56224.752   -56184.206   -59453.708    79133.939    8.0998001    75.894219   0.79298076   -79.335256 
       0.069       69    45.356483     42.93264     42.93264     42.93264   -65428.698   -65339.992   -65005.517   -65940.584   -56224.605   -56183.591   -59456.228    79133.939    8.0998001    75.181603   0.71261635   -80.116207 
        0.07       70    45.718046     42.93264     42.93264     42.93264   -65584.264   -65519.804   -65309.884   -65923.105   -56225.529   -56184.087   -59464.836    79133.939    8.0998001    74.449134   0.73246894   -80.867951 
       0.071       71    46.154442     42.93264     42.93264     42.93264   -65610.392   -65590.234   -65417.225   -65823.716   -56226.437   -56184.598   -59467.034    79133.939    8.0998001    73.621685   0.82744823   -81.660061 
       0.072       72    46.648196     42.93264     42.93264     42.93264   -65516.432   -65653.748   -65221.845   -65673.702   -56226.634   -56184.416   -59462.591    79133.939    8.0998001    72.799258   0.82242732   -82.483353 
       0.073       73    47.109387     42.93264     42.93264     42.93264   -65359.503   -65600.991   -65044.617   -65432.901   -56226.617   -56184.041   -59454.822    79133.939    8.0998001    72.105212   0.69404564   -83.249529 
       0.074       74    47.552032     42.93264     42.93264     42.93264   -65369.207   -65547.912   -65247.856   -65311.853   -56226.989   -56184.076   -59455.674    79133.939    8.0998001    71.365449   0.73976385   -83.978867 
       0.075       75    48.105951     42.93264     42.93264     42.93264   -65169.749   -65351.562    -65094.55   -65063.134   -56228.217   -56184.994   -59447.051    79133.939    8.0998001    70.533507   0.83194113   -84.778261 
       0.076       76    48.610911     42.93264     42.93264     42.93264   -65227.987   -65372.077   -65181.535   -65130.349   -56227.997   -56184.489   -59449.706    79133.939    8.0998001    69.914217   0.61929029   -85.509912 
       0.077       77    49.049964     42.93264     42.93264     42.93264   -65174.955   -65441.201   -65068.781   -65014.883   -56229.487    -56185.72   -59448.578    79133.939    8.0998001    69.206556   0.70766157   -86.160477 
       0.078       78    49.648077     42.93264     42.93264     42.93264   -64996.229   -65243.756   -64864.438   -64880.492   -56228.928   -56184.926   -59439.191    79133.939    8.0998001    68.355424   0.85113202   -86.935102 
       0.079       79    50.226595     42.93264     42.93264     42.93264   -65113.564   -65279.747   -65051.053   -65009.891   -56229.511   -56185.285   -59445.569    79133.939    8.0998001    67.727578   0.62784542   -87.674776 
        0.08       80    50.818693     42.93264     42.93264     42.93264   -65196.479   -65118.577   -65226.523   -65244.338   -56231.239    -56186.83   -59451.393    79133.939    8.0998001    66.946484   0.78109421   -88.388179 
       0.081       81    51.443896     42.93264     42.93264     42.93264   -65209.605   -65132.712   -65236.034   -65260.069   -56233.226    -56188.66   -59454.027    79133.939    8.0998001    66.298394   0.64809019   -89.110211 
       0.082       82    52.041961     42.93264     42.93264     42.93264   -65363.186   -65247.132   -65497.926   -65344.502   -56234.577   -56189.856   -59462.964    79133.939    8.0998001    65.538394   0.76000026   -89.791327 
       0.083       83     52.65068     42.93264     42.93264     42.93264    -65422.45   -65405.056   -65432.933   -65429.361   -56234.858   -56189.997   -59466.172    79133.939    8.0998001    64.891744   0.64664968   -90.468762 
       0.084       84    53.277197     42.93264     42.93264     42.93264   -65453.719   -65481.692   -65385.553   -65493.911   -56235.992   -56191.016   -59468.851    79133.939    8.0998001    64.197073   0.69467076     -91.1421 
       0.085       85    53.989184     42.93264     42.93264     42.93264   -65548.868   -65689.643   -65332.001   -65624.959   -56238.196   -56193.132   -59475.754    79133.939    8.0998001    63.463499   0.73357409   -91.868402 
       0.086       86    54.700991     42.93264     42.93264     42.93264   -65545.594   -65798.635   -65284.747     -65553.4   -56237.843   -56192.717    -59475.24    79133.939    8.0998001    62.796893    0.6666058   -92.572123 
       0.087       87    55.448408     42.93264     42.93264     42.93264   -65634.246   -65957.684   -65353.355   -65591.699   -56237.395   -56192.221   -59479.171    79133.939    8.0998001    62.037041   0.75985249   -93.291952 
       0.088       88    56.163998     42.93264     42.93264     42.93264   -65591.742   -65760.994   -65353.948   -65660.283   -56238.782    -56193.58   -59478.458    79133.939    8.0998001    61.482666   0.55437441   -93.963498 
       0.089       89     56.76465     42.93264     42.93264     42.93264   -65571.853   -65691.812   -65505.708   -65518.039   -56239.899   -56194.659   -59478.593    79133.939    8.0998001    60.941496   0.54117013   -94.527092 
        0.09       90    57.401795     42.93264     42.93264     42.93264   -65615.651   -65738.685   -65578.641   -65529.629    -56240.78    -56195.52   -59481.637    79133.939    8.0998001    60.331521   0.60997526    -95.11538 
       0.091       91     58.06299     42.93264     42.93264     42.93264   -65868.389   -66143.667   -65875.251   -65586.249   -56243.087   -56197.823   -59496.427    79133.939    8.0998001    59.744654   0.58686678   -95.715225 
       0.092       92    58.651396     42.93264     42.93264     42.93264   -65806.829    -66139.65   -65786.014   -65494.824   -56244.277    -56199.01   -59494.577    79133.939    8.0998001     59.26014   0.48451391    -96.25568 
       0.093       93    59.254603     42.93264     42.93264     42.93264   -65704.156   -66046.766   -65767.867   -65297.835    -56244.37   -56199.089   -59489.598    79133.939    8.0998001    58.657683   0.60245769     -96.8082 
       0.094       94    59.907716     42.93264     42.93264     42.93264   -65734.224   -66102.326    -65748.69   -65351.657    -56245.14   -56199.828   -59491.853    79133.939    8.0998001    58.042452   0.61523051   -97.411908 
       0.095       95    60.465593     42.93264     42.93264     42.93264   -65635.738   -65995.415   -65604.973   -65306.827   -56245.944   -56200.615   -59487.793    79133.939    8.0998001    57.612232   0.43022016   -97.929974 
       0.096       96    61.006296     42.93264     42.93264     42.93264   -65692.119    -65918.28   -65693.406    -65464.67   -56246.619   -56201.261   -59491.253    79133.939    8.0998001    57.040395   0.57183695   -98.435095 
       0.097       97     61.54104     42.93264     42.93264     42.93264   -65552.552   -65510.502   -65666.677   -65480.475   -56247.182   -56201.809   -59484.923    79133.939    8.0998001    56.613405   0.42699034   -98.933229 
       0.098       98     62.04652     42.93264     42.93264     42.93264   -65691.839   -65644.382   -65784.267   -65646.869   -56248.419   -56203.018    -59493.04    79133.939    8.0998001    56.086525   0.52688004   -99.412146 
       0.099       99    62.560293     42.93264     42.93264     42.93264   -65724.968   -65709.952   -65874.708   -65590.244   -56249.373   -56203.941   -59495.629    79133.939    8.0998001    55.633572   0.45295218   -99.902635 
         0.1      100    62.982306     42.93264     42.93264     42.93264   -65380.319   -65363.643   -65498.238   -65279.075   -56248.629   -56203.154   -59477.862    79133.939    8.0998001    55.240032   0.39354017   -100.31931 
       0.101      101    63.513341     42.93264     42.93264     42.93264   -65402.619   -65463.144   -65443.441   -65301.271   -56251.014   -56205.491   -59481.349    79133.939    8.0998001     54.56974   0.67029183   -100.84543 
       0.102      102     64.10337     42.93264     42.93264     42.93264   -65472.943   -65419.621   -65464.481   -65534.727   -56250.968   -56205.392   -59484.777    79133.939    8.0998001    54.057841   0.51189939   -101.43366 
       0.103      103    64.687002     42.93264     42.93264     42.93264   -65512.459   -65504.089   -65595.015   -65438.273   -56253.905   -56208.258   -59489.665    79133.939    8.0998001    53.397052   0.66078886   -102.02543 
       0.104      104    65.271403     42.93264     42.93264     42.93264   -65488.946   -65442.347   -65528.164   -65496.328   -56254.837   -56209.117   -59489.435    79133.939    8.0998001    52.890009   0.50704344    -102.6137 
       0.105      105    65.714777     42.93264     42.93264     42.93264   -65606.162   -65596.736   -65535.098   -65686.651   -56254.831    -56209.03    -59495.22    79133.939    8.0998001    52.450752   0.43925656   -103.08466 
       0.106      106    66.168178     42.93264     42.93264     42.93264   -65759.247   -65683.423    -65586.16   -66008.157   -56256.293   -56210.422   -59504.242    79133.939    8.0998001    51.924827   0.52592559    -103.5653 
       0.107      107    66.688217     42.93264     42.93264     42.93264   -65967.883   -65837.134   -65893.618   -66172.897   -56258.746   -56212.802   -59517.001    79133.939    8.0998001     51.35666   0.56816628   -104.10941 
       0.108      108    67.222997     42.93264     42.93264     42.93264    -65979.22   -65887.985   -65884.274     -66165.4   -56260.428   -56214.397   -59519.243    79133.939    8.0998001    50.808698   0.54796273   -104.67265 
       0.109      109     67.75353     42.93264     42.93264     42.93264   -66042.317   -65830.658   -66183.948   -66112.345   -56261.624     -56215.5   -59523.554    79133.939    8.0998001    50.264036   0.54466201   -105.22848 
        0.11      110    68.188994     42.93264     42.93264     42.93264   -66127.619   -65817.465   -66293.154   -66272.236   -56262.305   -56216.094   -59528.449    79133.939    8.0998001    49.851956   0.41207994   -105.70679 
       0.111      111    68.639963     42.93264     42.93264     42.93264   -66258.917   -65983.162   -66384.269   -66409.319   -56262.049   -56215.742   -59534.678    79133.939    8.0998001    49.275377   0.57657868    -106.2056 
       0.112      112    69.124051     42.93264     42.93264     42.93264   -66222.958   -65939.039   -66394.965   -66334.869   -56263.903   -56217.492   -59534.756    79133.939    8.0998001    48.805284   0.47009329   -106.74068 
       0.113      113      69.5214     42.93264     42.93264     42.93264   -66242.569    -66007.68    -66401.73   -66318.297   -56265.369   -56218.846   -59537.191    79133.939    8.0998001    48.346551   0.45873262    -107.2028 
       0.114      114    69.899304     42.93264     42.93264     42.93264   -66359.031   -66135.407   -66449.209   -66492.476   -56265.544   -56218.914   -59543.118    79133.939    8.0998001     47.88005   0.46650146   -107.65369 
       0.115      115    70.310286     42.93264     42.93264     42.93264   -66431.638   -66329.134   -66435.924   -66529.856   -56266.372   -56219.629   -59547.531    79133.939    8.0998001    47.395816   0.48423318   -108.13164 
       0.116      116    70.746301     42.93264     42.93264     42.93264   -66436.136   -66317.264   -66488.397   -66502.747   -56267.143   -56220.283   -59548.525    79133.939    8.0998001    46.854633   0.54118291   -108.64193 
       0.117      117    71.113231     42.93264     42.93264     42.93264   -66602.895   -66504.058   -66660.939   -66643.687   -56268.921   -56221.949    -59558.54    79133.939    8.0998001    46.492414   0.36221899   -109.08791 
       0.118      118     71.42568     42.93264     42.93264     42.93264   -66587.364   -66426.938   -66722.884    -66612.27   -56270.452   -56223.361   -59559.303    79133.939    8.0998001    46.068277   0.42413747   -109.49311 
       0.119      119    71.740277     42.93264     42.93264     42.93264   -66660.329   -66626.652   -66700.889   -66653.447   -56272.046   -56224.822   -59564.501    79133.939    8.0998001    45.678398   0.38987871   -109.90652 
        0.12      120    72.102654     42.93264     42.93264     42.93264    -66537.87   -66564.934   -66465.294   -66583.383   -56272.962   -56225.606   -59559.369    79133.939    8.0998001    45.159392    0.5190059   -110.36367 
       0.121      121    72.506165     42.93264     42.93264     42.93264   -66531.403   -66678.737   -66500.547   -66414.926   -56274.657   -56227.163   -59560.744    79133.939    8.0998001    44.697854   0.46153842   -110.86277 
       0.122      122    72.863656     42.93264     42.93264     42.93264   -66668.081   -66816.365   -66569.754   -66618.123   -56275.797   -56228.168   -59568.635    79133.939    8.0998001    44.251408   0.44644559   -111.31949 
       0.123      123     73.19688     42.93264     42.93264     42.93264   -66688.258   -66856.544   -66563.184   -66645.046    -56277.38   -56229.601   -59571.214    79133.939    8.0998001    43.825874   0.42553475   -111.75804 
       0.124      124    73.515898     42.93264     42.93264     42.93264    -66609.44   -66780.955   -66536.678   -66510.688   -56278.848   -56230.916    -59568.79    79133.939    8.0998001    43.377753   0.44812086    -112.1945 
       0.125      125    73.774942     42.93264     42.93264     42.93264       -66825   -66948.814   -66836.605    -66689.58   -56281.381    -56233.29    -59581.97    79133.939    8.0998001    43.036955   0.34079762   -112.58406 
       0.126      126    73.931645     42.93264     42.93264     42.93264   -67035.173   -67113.536   -67092.334   -66899.649   -56282.449   -56234.192   -59593.418    79133.939    8.0998001    42.751684   0.28527111   -112.89471 
       0.127      127    74.094258     42.93264     42.93264     42.93264   -67229.245   -67158.852   -67265.706   -67263.177   -56285.138   -56236.702   -59605.693    79133.939    8.0998001    42.400602   0.35108185   -113.21434 
       0.128      128    74.301692     42.93264     42.93264     42.93264   -67498.292   -67373.888    -67487.32   -67633.667   -56286.838   -56238.225   -59620.682    79133.939    8.0998001    42.030772   0.36982985   -113.57569 
       0.129      129    74.488779     42.93264     42.93264     42.93264   -67503.374   -67369.209   -67457.391    -67683.52   -56288.125   -56239.331    -59622.22    79133.939    8.0998001    41.714781   0.31599162   -113.92294 
        0.13      130    74.673087     42.93264     42.93264     42.93264    -67653.04   -67469.803   -67647.333   -67841.983   -56290.794   -56241.813   -59632.281    79133.939    8.0998001    41.346392   0.36838881   -114.26983 
       0.131      131    74.882899     42.93264     42.93264     42.93264   -68000.358   -67733.593   -68076.844   -68190.637   -56292.894    -56243.73   -59651.536    79133.939    8.0998001    40.954331   0.39206111   -114.63975 
       0.132      132    75.108914     42.93264     42.93264     42.93264   -68005.801   -67776.081   -68083.076   -68158.244   -56294.166   -56244.823   -59653.076    79133.939    8.0998001    40.537334   0.41699632   -115.02522 
       0.133      133    75.324622     42.93264     42.93264     42.93264    -67906.46   -67602.413   -67925.113   -68191.854   -56295.358   -56245.827   -59649.362    79133.939    8.0998001    40.176946   0.36038838   -115.40624 
       0.134      134    75.555952     42.93264     42.93264     42.93264   -68055.246   -67847.646   -67954.356   -68363.735   -56297.197   -56247.475   -59658.549    79133.939    8.0998001    39.735028   0.44191768   -115.79861 
       0.135      135    75.761774     42.93264     42.93264     42.93264   -68294.607   -68057.043   -68215.469   -68611.308   -56299.739   -56249.843   -59672.914    79133.939    8.0998001    39.422325   0.31270339   -116.16029 
       0.136      136    75.898608     42.93264     42.93264     42.93264    -68284.14   -68050.866    -68218.42   -68583.136   -56301.459   -56251.394   -59674.117    79133.939    8.0998001    39.142711   0.27961396   -116.45246 
       0.137      137    76.037776     42.93264     42.93264     42.93264   -68452.371   -68211.019   -68298.398   -68847.696   -56301.959   -56251.727   -59682.926    79133.939    8.0998001    38.826912   0.31579905   -116.74152 
       0.138      138    76.175261     42.93264     42.93264     42.93264   -68638.838   -68447.877   -68455.693   -69012.943   -56304.712   -56254.323   -59694.889    79133.939    8.0998001    38.545567   0.28134527   -117.02171 
       0.139      139    76.330126     42.93264     42.93264     42.93264   -68779.855   -68621.959   -68557.634   -69159.973    -56307.26   -56256.715   -59704.402    79133.939    8.0998001    38.218882   0.32668515   -117.31399 
        0.14      140    76.521528     42.93264     42.93264     42.93264   -68781.233   -68648.216   -68549.423   -69146.061    -56308.63   -56257.945    -59705.84    79133.939    8.0998001    37.914952   0.30392978   -117.62549 
       0.141      141    76.740738     42.93264     42.93264     42.93264   -68911.939   -68795.294   -68683.918   -69256.606   -56310.828    -56260.02   -59714.494    79133.939    8.0998001    37.562947   0.35200523   -117.94633 
       0.142      142    77.010764     42.93264     42.93264     42.93264   -68991.219   -68810.822   -68818.389   -69344.445   -56312.276   -56261.354   -59719.857    79133.939    8.0998001    37.201167   0.36177947   -118.30324 
       0.143      143    77.264129     42.93264     42.93264     42.93264   -68997.174   -68927.566   -68824.908   -69239.048    -56313.21   -56262.182   -59721.086    79133.939    8.0998001    36.885741    0.3154258   -118.63897 
       0.144      144    77.544551     42.93264     42.93264     42.93264   -69105.896   -68982.737   -68930.288   -69404.661   -56315.391   -56264.268   -59728.636    79133.939    8.0998001    36.488154   0.39758745   -118.99044 
       0.145      145    77.848265     42.93264     42.93264     42.93264   -69175.456   -69031.307   -69015.511   -69479.551   -56317.046   -56265.841   -59733.727    79133.939    8.0998001    36.168128    0.3200258   -119.34817 
       0.146      146    78.150077     42.93264     42.93264     42.93264   -69256.073   -69056.453   -69176.021   -69535.745   -56319.878   -56268.599   -59740.541    79133.939    8.0998001    35.800889   0.36723876   -119.68996 
       0.147      147    78.451544     42.93264     42.93264     42.93264   -69508.521   -69227.774   -69418.811   -69878.978    -56323.34   -56271.999   -59756.472    79133.939    8.0998001     35.52574   0.27514927    -120.0207 
       0.148      148     78.76512     42.93264     42.93264     42.93264   -69700.431   -69414.578   -69673.948   -70012.766   -56326.411   -56275.021   -59769.021    79133.939    8.0998001    35.146801   0.37893878   -120.34901 
       0.149      149    79.138998     42.93264     42.93264     42.93264   -69766.677   -69546.962   -69703.811   -70049.257   -56328.164   -56276.738   -59774.047    79133.939    8.0998001    34.776517   0.37028471   -120.72097 
        0.15      150    79.540283     42.93264     42.93264     42.93264   -69867.618   -69617.327   -69917.139   -70068.387   -56330.519   -56279.069   -59781.387    79133.939    8.0998001    34.389338   0.38717862   -121.10725 
       0.151      151    79.955832     42.93264     42.93264     42.93264   -69820.822   -69502.181   -69886.376   -70073.908   -56331.545   -56280.088   -59780.102    79133.939    8.0998001    34.026087   0.36325139   -121.49103 
       0.152      152    80.348887     42.93264     42.93264     42.93264   -70075.038   -69753.591   -70136.654   -70334.868    -56334.49   -56283.024   -59795.603    79133.939    8.0998001    33.673575    0.3525114   -121.84849 
       0.153      153    80.649474     42.93264     42.93264     42.93264    -70258.92    -70044.89   -70315.653   -70416.216    -56338.15   -56286.679   -59808.346    79133.939    8.0998001    33.498749   0.17482632   -122.11388 
       0.154      154    80.884317     42.93264     42.93264     42.93264   -70443.683     -70189.3   -70435.427   -70706.323   -56340.108   -56288.651   -59819.429    79133.939    8.0998001    33.281683   0.21706605   -122.30768 
       0.155      155    81.146588     42.93264     42.93264     42.93264   -70530.949   -70305.723   -70508.536   -70778.589   -56341.882   -56290.451   -59825.513    79133.939    8.0998001    33.060957   0.22072547   -122.51418 
       0.156      156    81.504634     42.93264     42.93264     42.93264   -70753.024   -70661.619   -70679.177   -70918.276   -56343.757   -56292.363   -59838.357    79133.939    8.0998001    32.711957   0.34900046   -122.79757 
       0.157      157    81.864096     42.93264     42.93264     42.93264   -71043.051   -70944.401   -70953.514   -71231.238   -56346.407   -56295.065   -59855.332    79133.939    8.0998001    32.510617   0.20133967   -123.06955 
       0.158      158    82.224017     42.93264     42.93264     42.93264   -71314.665   -71248.455   -71255.001   -71440.537   -56348.145   -56296.859   -59870.485    79133.939    8.0998001     32.16672   0.34389751   -123.33796 
       0.159      159    82.672924     42.93264     42.93264     42.93264   -71279.992   -71230.404    -71224.15   -71385.421   -56348.897   -56297.678   -59869.524    79133.939    8.0998001    31.851887   0.31483252   -123.67119 
        0.16      160    83.118817     42.93264     42.93264     42.93264   -71504.789   -71465.921    -71476.42   -71572.027   -56351.504   -56300.367   -59883.234    79133.939    8.0998001    31.534167   0.31772004   -123.99072 
       0.161      161    83.621919     42.93264     42.93264     42.93264   -71588.789   -71631.258   -71488.465   -71646.644   -56353.366   -56302.312   -59889.245    79133.939    8.0998001    31.144824   0.38934294   -124.35399 
       0.162      162     84.08394     42.93264     42.93264     42.93264   -71711.152   -71682.183   -71706.092   -71745.179   -56356.159   -56305.195   -59898.082    79133.939    8.0998001    30.893611   0.25121294    -124.6753 
       0.163      163    84.569871     42.93264     42.93264     42.93264   -71908.132   -71851.415   -71914.286   -71958.696   -56358.321   -56307.448   -59909.973    79133.939    8.0998001    30.434205   0.45940612   -125.01461 
       0.164      164    85.097006     42.93264     42.93264     42.93264   -72067.865   -71967.185   -72108.962   -72127.448   -56361.594   -56310.828   -59921.136    79133.939    8.0998001    30.151261   0.28294445   -125.37903 
       0.165      165    85.489317     42.93264     42.93264     42.93264   -72254.316   -72113.469   -72236.895   -72412.583   -56364.272   -56313.615   -59933.023    79133.939    8.0998001    29.977105   0.17415563   -125.61722 
       0.166      166    85.874128     42.93264     42.93264     42.93264   -72375.228   -72159.692   -72393.032   -72572.961   -56366.225   -56315.679   -59940.948    79133.939    8.0998001    29.725217   0.25188811   -125.84174 
       0.167      167    86.350549     42.93264     42.93264     42.93264   -72661.314   -72387.827   -72676.519   -72919.595   -56367.512    -56317.08   -59956.365    79133.939    8.0998001     29.39287   0.33234733   -126.14672 
       0.168      168    86.847399     42.93264     42.93264     42.93264   -73187.108   -72882.025   -73252.888   -73426.412    -56370.62   -56320.309   -59985.443    79133.939    8.0998001    29.095435   0.29743441   -126.46683 
       0.169      169     87.23987     42.93264     42.93264     42.93264   -73501.537   -73097.627   -73616.446   -73790.537    -56372.67   -56322.489   -60003.023    79133.939    8.0998001    28.935675   0.15976063   -126.68978 
        0.17      170    87.600113     42.93264     42.93264     42.93264   -73801.938   -73424.462   -73792.827   -74188.525   -56375.136   -56325.089   -60020.327    79133.939    8.0998001    28.693107   0.24256801   -126.88446 
       0.171      171    87.924385     42.93264     42.93264     42.93264   -74079.682   -73703.285   -74079.549    -74456.21   -56378.178    -56328.26   -60037.086    79133.939    8.0998001    28.600698  0.092408632   -127.04508 
       0.172      172    88.260276     42.93264     42.93264     42.93264   -74539.394   -74224.053   -74482.242   -74911.887   -56381.993   -56332.207   -60063.607    79133.939    8.0998001    28.362461   0.23823671   -127.21146 
       0.173      173    88.690236     42.93264     42.93264     42.93264    -74763.45   -74432.736   -74684.553   -75173.061    -56385.16   -56335.509    -60077.84    79133.939    8.0998001    28.119462   0.24299933   -127.45776 
       0.174      174    89.159583     42.93264     42.93264     42.93264   -75095.474   -74812.918   -74987.543   -75485.962   -56387.383   -56337.866   -60096.463    79133.939    8.0998001    27.814048   0.30541433   -127.74012 
       0.175      175    89.607239     42.93264     42.93264     42.93264   -75335.595    -75143.72   -75195.918   -75667.147   -56390.803   -56341.418   -60111.743    79133.939    8.0998001    27.592507   0.22154056   -128.01258 
       0.176      176    89.995044     42.93264     42.93264     42.93264   -75750.229   -75562.042   -75676.539   -76012.107   -56394.585   -56345.324   -60136.004    79133.939    8.0998001    27.367732   0.22477453   -128.23905 
       0.177      177    90.366559     42.93264     42.93264     42.93264   -75974.771   -75834.391   -75973.665   -76116.256    -56397.45   -56348.298    -60149.96    79133.939    8.0998001    27.145945   0.22178749    -128.4567 
       0.178      178    90.710513     42.93264     42.93264     42.93264   -76053.063   -75920.689   -76106.925   -76131.574   -56400.457   -56351.412   -60156.833    79133.939    8.0998001    26.949295   0.19665008   -128.65845 
       0.179      179    91.034588     42.93264     42.93264     42.93264   -76184.793   -75981.362   -76256.967    -76316.05   -56403.065   -56354.115   -60165.948    79133.939    8.0998001    26.759201   0.19009362   -128.85319 
        0.18      180    91.423166     42.93264     42.93264     42.93264   -76515.595   -76289.271   -76496.783   -76760.733   -56407.065   -56358.206   -60186.287    79133.939    8.0998001    26.425213   0.33398851   -129.11281 
       0.181      181    91.846749     42.93264     42.93264     42.93264   -76751.059   -76460.731   -76789.738   -77002.708   -56410.153   -56361.369   -60201.005    79133.939    8.0998001    26.156444   0.26876912   -129.41183 
       0.182      182     92.19329     42.93264     42.93264     42.93264   -76946.017   -76680.972   -77008.138   -77148.941   -56412.814   -56364.095   -60213.295    79133.939    8.0998001    25.934067   0.22237633   -129.65507 
       0.183      183    92.481532     42.93264     42.93264     42.93264   -77063.127   -76842.657   -77106.717   -77240.008   -56414.718   -56366.063   -60220.984    79133.939    8.0998001     25.75988    0.1741874    -129.8494 
       0.184      184     92.82315     42.93264     42.93264     42.93264   -77339.325   -77008.311   -77514.724   -77494.941   -56417.624   -56369.028   -60237.531    79133.939    8.0998001    25.467341   0.29253845    -130.0907 
       0.185      185    93.157795     42.93264     42.93264     42.93264   -77528.168    -77251.35   -77728.734   -77604.418   -56420.021   -56371.495   -60249.255    79133.939    8.0998001    25.299962   0.16737963   -130.32342 
       0.186      186    93.403996     42.93264     42.93264     42.93264   -77887.244    -77635.69    -78068.34   -77957.703   -56423.808   -56375.355   -60270.777    79133.939    8.0998001     25.15026   0.14970134   -130.47968 
       0.187      187    93.647623     42.93264     42.93264     42.93264   -78384.278    -78138.39   -78535.135   -78479.309   -56427.105   -56378.716   -60298.624    79133.939    8.0998001     24.99991   0.15035079   -130.63241 
       0.188      188    93.890954     42.93264     42.93264     42.93264   -78754.539   -78507.447   -78890.562   -78865.608   -56429.324   -56380.999   -60319.131    79133.939    8.0998001    24.868997   0.13091272   -130.77708 
       0.189      189    94.146997     42.93264     42.93264     42.93264   -78913.701   -78650.248   -79109.809   -78981.047   -56431.403   -56383.154   -60329.071    79133.939    8.0998001    24.697067   0.17192959   -130.92845 
        0.19      190    94.469422     42.93264     42.93264     42.93264   -79091.436   -78811.151   -79336.566   -79126.591   -56433.891   -56385.709   -60340.338    79133.939    8.0998001      24.4321   0.26496711   -131.14455 
       0.191      191    94.781332     42.93264     42.93264     42.93264   -79357.773   -78996.902   -79677.597   -79398.819   -56436.574   -56388.459   -60356.176    79133.939    8.0998001    24.258322   0.17377813    -131.3573 
       0.192      192    94.978993     42.93264     42.93264     42.93264   -79540.848   -79120.925   -79923.919   -79577.699   -56438.918   -56390.867   -60367.562    79133.939    8.0998001    24.176296  0.082026141    -131.4751 
       0.193      193    95.200936     42.93264     42.93264     42.93264   -80017.737   -79521.061   -80423.121   -80109.028   -56442.353   -56394.358   -60394.551    79133.939    8.0998001    23.973333   0.20296335   -131.61555 
       0.194      194    95.478323     42.93264     42.93264     42.93264   -80365.575   -79816.567   -80802.033   -80478.124   -56445.166    -56397.23   -60414.545    79133.939    8.0998001     23.79665    0.1766828   -131.80593 
       0.195      195     95.71861     42.93264     42.93264     42.93264   -80766.592   -80244.856   -81192.885   -80862.034   -56448.299   -56400.417   -60437.484    79133.939    8.0998001    23.652149   0.14450097   -131.96992 
       0.196      196    95.932693     42.93264     42.93264     42.93264    -81135.38   -80631.975   -81539.125    -81235.04   -56452.013   -56404.194   -60459.413    79133.939    8.0998001    23.516226   0.13592262   -132.10808 
       0.197      197    96.142187     42.93264     42.93264     42.93264   -81580.435   -81110.921   -82012.139   -81618.246   -56455.347   -56407.579   -60484.729    79133.939    8.0998001    23.364255   0.15197115   -132.24476 
       0.198      198    96.365803     42.93264     42.93264     42.93264   -81971.896   -81529.782   -82331.267   -82054.641   -56458.549   -56410.831   -60507.266    79133.939    8.0998001    23.208621   0.15563423   -132.40039 
       0.199      199    96.585399     42.93264     42.93264     42.93264   -82118.957   -81706.447   -82462.061   -82188.362   -56459.971   -56412.289   -60515.952    79133.939    8.0998001    23.049608    0.1590131   -132.55957 
         0.2      200    96.785365     42.93264     42.93264     42.93264    -82521.53   -82241.509   -82798.554   -82524.526   -56462.932   -56415.275   -60538.796    79133.939    8.0998001    22.922202   0.12740525   -132.71268 
       0.201      201    97.062551     42.93264     42.93264     42.93264   -82829.158   -82634.204   -83063.078   -82790.193    -56465.59   -56417.956   -60556.649    79133.939    8.0998001    22.637829   0.28437365   -132.94017 
       0.202      202    97.383184     42.93264     42.93264     42.93264    -83163.13   -82988.823   -83358.394   -83142.173   -56468.418   -56420.803   -60575.972    79133.939    8.0998001    22.383094   0.25473448   -133.21596 
       0.203      203    97.626121     42.93264     42.93264     42.93264   -83426.841   -83218.853   -83671.388   -83390.282   -56470.542   -56422.928   -60591.121    79133.939    8.0998001     22.19592   0.18717426   -133.43226 
       0.204      204    97.782908     42.93264     42.93264     42.93264   -83690.497   -83597.931   -83849.864   -83623.696    -56473.46    -56425.84   -60607.061    79133.939    8.0998001    22.072068   0.12385202   -133.58153 
       0.205      205    97.878326     42.93264     42.93264     42.93264   -84021.761   -83932.814   -84116.095   -84016.372   -56476.856   -56429.229   -60626.818    79133.939    8.0998001    21.979162   0.09290591   -133.67561 
       0.206      206     98.03235     42.93264     42.93264     42.93264    -84560.37   -84521.875   -84667.498   -84491.737   -56480.595   -56432.959    -60657.16    79133.939    8.0998001     21.76955   0.20961266   -133.82045 
       0.207      207    98.128066     42.93264     42.93264     42.93264   -84973.059   -84921.541   -85117.203   -84880.432   -56483.678   -56436.024   -60680.626    79133.939    8.0998001    21.775129 -0.0055792126   -133.91917 
       0.208      208    98.186211     42.93264     42.93264     42.93264   -85275.035   -85250.603   -85341.014   -85233.489   -56485.879   -56438.206   -60697.743    79133.939    8.0998001    21.619123    0.1560062   -133.98922 
       0.209      209    98.268025     42.93264     42.93264     42.93264   -85491.562   -85412.493   -85594.862   -85467.331    -56487.74   -56440.054   -60710.298    79133.939    8.0998001    21.593791  0.025331828    -134.0774 
        0.21      210    98.352946     42.93264     42.93264     42.93264   -85859.135   -85777.689   -85923.389   -85876.327   -56490.326   -56442.628    -60731.04    79133.939    8.0998001    21.442757   0.15103383   -134.16524 
       0.211      211    98.496493     42.93264     42.93264     42.93264    -86070.49    -86023.67   -86170.816   -86016.985   -56491.831   -56444.111   -60742.984    79133.939    8.0998001    21.278891   0.16386589   -134.31144 
       0.212      212    98.647342     42.93264     42.93264     42.93264   -86455.697   -86408.654   -86600.648   -86357.788   -56494.514    -56446.77   -60764.692    79133.939    8.0998001    21.097743   0.18114799   -134.46659 
       0.213      213    98.841174     42.93264     42.93264     42.93264   -86826.064   -86784.716   -86959.218   -86734.257   -56496.994   -56449.231   -60785.465    79133.939    8.0998001    20.876356   0.22138718    -134.6573 
       0.214      214    99.003571     42.93264     42.93264     42.93264   -87025.601   -86990.808   -87171.384    -86914.61   -56499.524   -56451.752   -60797.851    79133.939    8.0998001    20.778292  0.098063545    -134.8126 
       0.215      215    99.189739     42.93264     42.93264     42.93264   -87292.513   -87246.954   -87458.499   -87172.084   -56501.968   -56454.197   -60813.478    79133.939    8.0998001    20.534742   0.24355067   -134.98294 
       0.216      216     99.37231     42.93264     42.93264     42.93264   -87666.556   -87697.618   -87785.458   -87516.591   -56504.698   -56456.931   -60834.682    79133.939    8.0998001    20.456275  0.078466404   -135.14594 
       0.217      217    99.467785     42.93264     42.93264     42.93264   -88161.213   -88241.839   -88217.076   -88024.725   -56508.086   -56460.322   -60862.502    79133.939    8.0998001    20.362073  0.094201946   -135.23026 
       0.218      218    99.554459     42.93264     42.93264     42.93264   -88551.782   -88518.772   -88661.748   -88474.828   -56510.933   -56463.179    -60884.64    79133.939    8.0998001    20.300124  0.061948781   -135.30296 
       0.219      219     99.64997     42.93264     42.93264     42.93264   -88993.277   -88938.547   -89157.258   -88884.027    -56513.93   -56466.191   -60909.444    79133.939    8.0998001     20.21397  0.086154064   -135.37953 
        0.22      220    99.770801     42.93264     42.93264     42.93264   -89354.904   -89214.926   -89607.668   -89242.119   -56516.654   -56468.928   -60930.029    79133.939    8.0998001    20.115128  0.098842531   -135.47201 
       0.221      221    99.944666     42.93264     42.93264     42.93264   -89767.384   -89582.097   -90005.506    -89714.55   -56519.466   -56471.753   -60953.214    79133.939    8.0998001    19.936489   0.17863862   -135.61225 
       0.222      222    100.15301     42.93264     42.93264     42.93264   -90163.604   -89948.457   -90430.504   -90111.851   -56522.057   -56474.356   -60975.375    79133.939    8.0998001    19.786309    0.1501801   -135.78277 
       0.223      223    100.31714     42.93264     42.93264     42.93264   -90566.195   -90305.192   -90849.903   -90543.491   -56524.087   -56476.412    -60997.29    79133.939    8.0998001    19.684975   0.10133454    -135.9088 
       0.224      224    100.48109     42.93264     42.93264     42.93264   -91130.557   -90811.174   -91471.986   -91108.511   -56527.151   -56479.489   -61028.228    79133.939    8.0998001    19.534176   0.15079836   -136.04013 
       0.225      225    100.68201     42.93264     42.93264     42.93264   -91617.977   -91268.186   -92030.294   -91555.451   -56530.316   -56482.666   -61055.468    79133.939    8.0998001    19.373576   0.16060016   -136.20586 
       0.226      226    100.83777     42.93264     42.93264     42.93264   -92108.483   -91807.366   -92502.792   -92015.292   -56533.083   -56485.441   -61082.461    79133.939    8.0998001    19.277965  0.095610738    -136.3359 
       0.227      227    100.97827     42.93264     42.93264     42.93264   -92584.993    -92342.57    -92951.37   -92461.038    -56535.99   -56488.355   -61108.904    79133.939    8.0998001    19.135954    0.1420118   -136.45305 
       0.228      228    101.16161     42.93264     42.93264     42.93264   -92937.112   -92647.056   -93326.437   -92837.843   -56538.069   -56490.451   -61128.374    79133.939    8.0998001    18.987918   0.14803516   -136.60075 
       0.229      229    101.30043     42.93264     42.93264     42.93264   -93364.186   -93077.052   -93805.514   -93209.993   -56540.307   -56492.715   -61151.707    79133.939    8.0998001    18.932012  0.055906474   -136.69987 
        0.23      230    101.42261     42.93264     42.93264     42.93264   -93821.727   -93514.652    -94338.94   -93611.589   -56543.207   -56495.642   -61177.205    79133.939    8.0998001    18.803906   0.12810614   -136.78512 
       0.231      231    101.59894     42.93264     42.93264     42.93264   -94088.373   -93745.276   -94586.853    -93932.99   -56545.412   -56497.871    -61192.58    79133.939    8.0998001    18.656212   0.14769424   -136.92096 
       0.232      232    101.72097     42.93264     42.93264     42.93264   -94427.998   -94169.503   -94888.359   -94226.133   -56547.575   -56500.059   -61211.517    79133.939    8.0998001    18.630873  0.025338353   -137.00519 
       0.233      233    101.83165     42.93264     42.93264     42.93264   -94988.311   -94732.961   -95435.758   -94796.215   -56550.899   -56503.415   -61242.517    79133.939    8.0998001    18.531145  0.099728043   -137.06971 
       0.234      234    101.97161     42.93264     42.93264     42.93264   -95504.689   -95242.505    -95987.15   -95284.413   -56553.492    -56506.05   -61270.614    79133.939    8.0998001    18.485113  0.046032308   -137.14949 
       0.235      235    102.13601     42.93264     42.93264     42.93264   -95843.976   -95607.112   -96371.449   -95553.366   -56556.141   -56508.754   -61290.021    79133.939    8.0998001    18.366373   0.11874005   -137.23752 
       0.236      236    102.33164     42.93264     42.93264     42.93264   -96387.149   -96141.518   -96844.623   -96175.306   -56559.491   -56512.171     -61320.2    79133.939    8.0998001    18.289922  0.076451228   -137.34076 
       0.237      237    102.59066     42.93264     42.93264     42.93264   -96724.964    -96499.06   -97147.104   -96528.729   -56561.709   -56514.472   -61339.103    79133.939    8.0998001    18.077972   0.21194946    -137.4895 
       0.238      238    102.83902     42.93264     42.93264     42.93264    -97199.37   -97077.463   -97632.974   -96887.672   -56564.923    -56517.78   -61365.748    79133.939    8.0998001    18.042224  0.035748509   -137.61624 
       0.239      239    103.03275     42.93264     42.93264     42.93264   -97639.274   -97454.195   -98035.523   -97428.105   -56567.403   -56520.367   -61389.955    79133.939    8.0998001    17.930171   0.11205293   -137.68662 
        0.24      240    103.28199     42.93264     42.93264     42.93264   -97964.944   -97775.117   -98267.896    -97851.82   -56569.421   -56522.501   -61408.058    79133.939    8.0998001    17.796231   0.13393967   -137.80291 
       0.241      241    103.51436     42.93264     42.93264     42.93264   -98414.655   -98276.616   -98706.615   -98260.733   -56571.977   -56525.165   -61432.826    79133.939    8.0998001    17.735542  0.060689307   -137.90227 
       0.242      242    103.69163     42.93264     42.93264     42.93264   -98704.769   -98576.624   -98955.946   -98581.738   -56573.726   -56527.022   -61448.905    79133.939    8.0998001    17.718221  0.017321003   -137.95216 
       0.243      243    103.91558     42.93264     42.93264     42.93264   -99071.856   -98935.728   -99306.202   -98973.638   -56575.909   -56529.319   -61469.219    79133.939    8.0998001    17.588302   0.12991847   -138.03533 
       0.244      244    104.18873     42.93264     42.93264     42.93264    -99575.16   -99392.486   -99831.746   -99501.248   -56578.665   -56532.194   -61496.834    79133.939    8.0998001    17.487755   0.10054741   -138.15179 
       0.245      245    104.45214     42.93264     42.93264     42.93264   -100029.05   -99864.482   -100291.31   -99931.361   -56581.183   -56534.845   -61521.771    79133.939    8.0998001     17.38409   0.10366431   -138.24993 
       0.246      246    104.71369     42.93264     42.93264     42.93264    -100489.9   -100359.09   -100815.83   -100294.79   -56583.888   -56537.697   -61547.237    79133.939    8.0998001    17.297491  0.086599832   -138.33694 
       0.247      247    105.00213     42.93264     42.93264     42.93264   -101146.57   -101030.65   -101425.25   -100983.81   -56587.174   -56541.138   -61582.957    79133.939    8.0998001    17.174905   0.12258561   -138.44055 
       0.248      248    105.29011     42.93264     42.93264     42.93264   -101527.08   -101383.06   -101806.42   -101391.77   -56588.987   -56543.115   -61603.564    79133.939    8.0998001    17.125859  0.049046478   -138.53464 
       0.249      249    105.57459     42.93264     42.93264     42.93264   -101999.52   -101818.25   -102331.17   -101849.14   -56591.629   -56545.928   -61629.541    79133.939    8.0998001    17.013751   0.11210775   -138.62063 
        0.25      250     105.8946     42.93264     42.93264     42.93264   -102595.58   -102475.83   -102961.48   -102349.42   -56594.538   -56549.007    -61661.89    79133.939    8.0998001    16.894116   0.11963512   -138.73387 
       0.251      251    106.24581     42.93264     42.93264     42.93264   -103372.08   -103252.02    -103726.5   -103137.71    -56597.96   -56552.605   -61703.664    79133.939    8.0998001    16.715013   0.17910244   -138.87576 
       0.252      252    106.50238     42.93264     42.93264     42.93264   -103835.86   -103736.15   -104190.63   -103580.79   -56600.225   -56555.049   -61728.836    79133.939    8.0998001    16.784954 -0.069940295   -138.93206 
       0.253      253    106.74688     42.93264     42.93264     42.93264   -104349.07   -104247.54   -104676.48   -104123.18   -56602.544   -56557.542   -61756.503    79133.939    8.0998001    16.642635   0.14231899   -138.97833 
       0.254      254    107.04765     42.93264     42.93264     42.93264   -104669.78   -104577.48   -104947.62   -104484.24   -56604.078    -56559.25   -61773.878    79133.939    8.0998001    16.606188  0.036446241   -139.07126 
       0.255      255    107.31813     42.93264     42.93264     42.93264   -104968.01   -104831.91   -105198.87   -104873.24   -56605.663   -56561.022   -61790.193    79133.939    8.0998001    16.527503  0.078685043   -139.12837 
       0.256      256    107.56197     42.93264     42.93264     42.93264   -105270.42   -105102.31   -105493.15   -105215.79   -56607.187   -56562.747   -61806.653    79133.939    8.0998001    16.543021 -0.015517411   -139.15667 
       0.257      257     107.7625     42.93264     42.93264     42.93264   -105618.06   -105442.18   -105853.29    -105558.7   -56608.787   -56564.551   -61825.424    79133.939    8.0998001    16.549275 -0.0062541528   -139.14013 
       0.258      258    108.02402     42.93264     42.93264     42.93264   -106096.58   -105883.54   -106342.17   -106064.03   -56611.201   -56567.174   -61851.473    79133.939    8.0998001    16.492448  0.056826479   -139.16749 
       0.259      259    108.33444     42.93264     42.93264     42.93264   -106374.18    -106196.2   -106604.44    -106321.9   -56612.732   -56568.916   -61866.715    79133.939    8.0998001    16.441655  0.050793328   -139.22922 
        0.26      260    108.65658     42.93264     42.93264     42.93264   -106767.39   -106597.07   -106963.46   -106741.65   -56614.845   -56571.245   -61888.249    79133.939    8.0998001    16.353684  0.087971489   -139.29615 
       0.261      261    109.01305     42.93264     42.93264     42.93264   -107138.19   -107037.63   -107282.59   -107094.37   -56616.824   -56573.449   -61908.543    79133.939    8.0998001    16.257684  0.095999227   -139.38596 
       0.262      262    109.43671     42.93264     42.93264     42.93264   -107523.27   -107402.98   -107672.38   -107494.45   -56618.632    -56575.49    -61929.37    79133.939    8.0998001    16.060593   0.19709101   -139.53058 
       0.263      263    109.86717     42.93264     42.93264     42.93264   -107775.47   -107638.53   -107894.32   -107793.56    -56620.14   -56577.243   -61943.335    79133.939    8.0998001    15.956015   0.10457868   -139.67481 
       0.264      264    110.27341     42.93264     42.93264     42.93264   -108125.14    -107999.5   -108187.68   -108188.23   -56621.841   -56579.185   -61962.306    79133.939    8.0998001    15.820174   0.13584085   -139.79523 
       0.265      265    110.68888     42.93264     42.93264     42.93264   -108523.55   -108379.26   -108600.76   -108590.64     -56623.8   -56581.398   -61983.944    79133.939    8.0998001     15.70975   0.11042354   -139.92173 
       0.266      266    111.00089     42.93264     42.93264     42.93264   -109070.78   -108812.68   -109208.17    -109191.5   -56626.219   -56584.063   -62013.391    79133.939    8.0998001    15.757337 -0.047586811   -139.95616 
       0.267      267     111.2506     42.93264     42.93264     42.93264   -109218.23   -108944.33   -109422.43   -109287.91   -56627.145   -56585.232     -62021.6    79133.939    8.0998001    15.755404  0.001932881   -139.93696 
       0.268      268    111.53043     42.93264     42.93264     42.93264    -109525.7   -109277.95   -109703.34   -109595.79   -56628.688   -56587.013    -62038.33    79133.939    8.0998001    15.740495  0.014909056    -139.9505 
       0.269      269    111.85328     42.93264     42.93264     42.93264   -109980.15   -109586.43   -110212.77   -110141.25   -56630.792   -56589.345   -62062.879    79133.939    8.0998001    15.655712  0.084783433    -140.0058 
        0.27      270    112.19477     42.93264     42.93264     42.93264    -110117.4   -109682.41   -110346.53   -110323.24   -56631.875   -56590.665   -62070.741    79133.939    8.0998001    15.603004  0.052707559   -140.07512 
       0.271      271    112.52549     42.93264     42.93264     42.93264   -110494.48   -109989.77   -110788.42   -110705.24   -56633.745   -56592.777   -62091.235    79133.939    8.0998001     15.54419  0.058814216   -140.13036 
       0.272      272    112.89342     42.93264     42.93264     42.93264   -110863.24   -110322.19   -111175.55   -111091.97    -56635.69   -56594.968   -62111.394    79133.939    8.0998001    15.439447   0.10474327   -140.21335 
       0.273      273    113.25562     42.93264     42.93264     42.93264   -111222.71   -110596.81   -111616.86   -111454.45   -56637.556   -56597.085   -62131.015    79133.939    8.0998001    15.412443  0.027003201   -140.28443 
       0.274      274    113.56839     42.93264     42.93264     42.93264   -111661.42   -111018.58   -112020.38    -111945.3   -56639.593   -56599.379   -62154.721    79133.939    8.0998001    15.400356  0.012087599   -140.30386 
       0.275      275    113.85647     42.93264     42.93264     42.93264   -112061.72   -111467.68   -112441.95   -112275.54   -56641.184   -56601.238   -62176.083    79133.939    8.0998001    15.433945 -0.033588691   -140.29335 
       0.276      276    114.17855     42.93264     42.93264     42.93264   -112513.48   -111877.42   -112900.74   -112762.27   -56642.962   -56603.285   -62200.174    79133.939    8.0998001    15.362738   0.07120696   -140.31612 
       0.277      277    114.52331     42.93264     42.93264     42.93264   -112847.88   -112188.07   -113238.33   -113117.22   -56644.361   -56604.949    -62218.09    79133.939    8.0998001    15.357479 0.0052588956   -140.35526 
       0.278      278    114.87919     42.93264     42.93264     42.93264    -113114.3   -112477.89   -113550.57   -113314.42   -56645.399   -56606.255   -62232.287    79133.939    8.0998001    15.280548  0.076931169   -140.40349 
       0.279      279    115.22027     42.93264     42.93264     42.93264    -113525.8   -112887.03   -113986.14   -113704.23    -56647.28   -56608.405   -62254.492    79133.939    8.0998001    15.306823  -0.02627529   -140.43994 
        0.28      280    115.54965     42.93264     42.93264     42.93264   -113909.92   -113252.01   -114366.28   -114111.46   -56648.977   -56610.373   -62275.162    79133.939    8.0998001    15.256513  0.050309579   -140.46522 
       0.281      281     115.9744     42.93264     42.93264     42.93264   -114175.32   -113532.63   -114647.32   -114346.02   -56650.086   -56611.762   -62289.379    79133.939    8.0998001    15.099148   0.15736516   -140.57088 
       0.282      282    116.33582     42.93264     42.93264     42.93264   -114555.71   -113926.03   -114981.08   -114760.01    -56651.58   -56613.537   -62309.661    79133.939    8.0998001    15.151743 -0.052594722   -140.61793 
       0.283      283    116.66856     42.93264     42.93264     42.93264   -114855.34   -114155.05    -115326.7   -115084.27   -56652.981   -56615.214   -62325.862    79133.939    8.0998001    15.035034   0.11670913    -140.6414 
       0.284      284    116.96847     42.93264     42.93264     42.93264   -115261.67    -114498.5   -115785.17   -115501.35    -56654.26   -56616.765    -62347.21    79133.939    8.0998001    15.145507  -0.11047298   -140.63834 
       0.285      285    117.23265     42.93264     42.93264     42.93264   -115780.61   -114999.17   -116365.73   -115976.93   -56656.206   -56618.981   -62374.787    79133.939    8.0998001    15.092022  0.053485106   -140.60746 
       0.286      286    117.62187     42.93264     42.93264     42.93264   -116149.73   -115318.46   -116727.08   -116403.66   -56657.738   -56620.779    -62394.55    79133.939    8.0998001    14.971332   0.12068991   -140.69039 
       0.287      287    117.98241     42.93264     42.93264     42.93264   -116579.71   -115771.55   -117134.79    -116832.8    -56659.38    -56622.69    -62417.43    79133.939    8.0998001    14.967238 0.0040936022   -140.75122 
       0.288      288    118.30886     42.93264     42.93264     42.93264   -116941.66   -116117.19   -117451.56   -117256.23   -56660.791   -56624.358   -62436.718    79133.939    8.0998001    14.898149  0.069088536   -140.78552 
       0.289      289    118.74061     42.93264     42.93264     42.93264   -117242.04   -116393.62   -117710.74   -117621.75   -56662.061   -56625.883   -62452.824    79133.939    8.0998001    14.715805   0.18234443   -140.91548 
        0.29      290     119.1729     42.93264     42.93264     42.93264   -117633.92   -116747.06   -118090.11   -118064.59   -56663.482   -56627.565   -62473.601    79133.939    8.0998001    14.637608  0.078196881    -141.0453 
       0.291      291    119.47897     42.93264     42.93264     42.93264   -117897.72   -117002.23    -118309.7   -118381.23   -56664.482   -56628.824    -62487.63    79133.939    8.0998001    14.681238 -0.043629992    -141.0567 
       0.292      292    119.74327     42.93264     42.93264     42.93264   -118178.62   -117260.16   -118632.13   -118643.56    -56665.89   -56630.501   -62502.912    79133.939    8.0998001    14.704392 -0.023154106   -141.02576 
       0.293      293    120.03007     42.93264     42.93264     42.93264   -118556.95   -117586.37   -118972.41   -119112.07   -56667.522   -56632.406   -62523.231    79133.939    8.0998001    14.716633 -0.012240756   -141.01203 
       0.294      294    120.32585     42.93264     42.93264     42.93264    -118912.1   -117917.62   -119316.13   -119502.53   -56668.936   -56634.097   -62542.186    79133.939    8.0998001    14.718717 -0.0020844458   -141.00534 
       0.295      295    120.64147     42.93264     42.93264     42.93264    -119218.5   -118243.13   -119613.14   -119799.24   -56670.143   -56635.577   -62558.527    79133.939    8.0998001    14.698568  0.020149305   -141.01864 
       0.296      296    120.99531     42.93264     42.93264     42.93264   -119576.02   -118600.58      -119977   -120150.47   -56671.486    -56637.19   -62577.528    79133.939    8.0998001    14.641774  0.056793715   -141.06728 
       0.297      297    121.32577     42.93264     42.93264     42.93264   -119921.13   -118900.45   -120332.16   -120530.77    -56672.65   -56638.615   -62595.737    79133.939    8.0998001    14.639508 0.0022664106   -141.09862 
       0.298      298    121.65286     42.93264     42.93264     42.93264   -120111.66   -119172.89   -120479.61   -120682.49   -56673.534   -56639.766   -62606.032    79133.939    8.0998001    14.594603  0.044905299   -141.12448 
       0.299      299     121.9862     42.93264     42.93264     42.93264   -120409.82   -119456.07   -120756.62   -121016.77   -56674.715   -56641.217    -62621.94    79133.939    8.0998001    14.580807   0.01379564   -141.15807 
         0.3      300    122.34941     42.93264     42.93264     42.93264   -120551.41   -119601.57   -120943.48   -121109.19   -56675.374    -56642.14   -62629.592    79133.939    8.0998001    14.465295   0.11551227     -141.223 
       0.301      301    122.70121     42.93264     42.93264     42.93264   -120741.71   -119741.42   -121157.66   -121326.06   -56676.114   -56643.138   -62639.731    79133.939    8.0998001    14.479189 -0.013894188   -141.28025 
       0.302      302    123.06153     42.93264     42.93264     42.93264    -120973.7   -119985.06    -121355.1   -121580.93    -56676.87   -56644.155   -62651.945    79133.939    8.0998001    14.334191   0.14499763   -141.34663 
       0.303      303    123.47649     42.93264     42.93264     42.93264   -121170.82   -120242.03   -121522.46   -121747.97   -56677.494   -56645.037   -62662.306    79133.939    8.0998001    14.235262  0.098929846    -141.4622 
       0.304      304    123.88932     42.93264     42.93264     42.93264   -121484.48   -120515.62   -121849.09   -122088.73   -56678.669   -56646.472   -62678.972    79133.939    8.0998001    14.114866   0.12039585   -141.57058 
       0.305      305    124.32155     42.93264     42.93264     42.93264   -121879.83   -120892.92   -122337.94   -122408.62   -56680.046    -56648.11   -62699.876    79133.939    8.0998001    13.987675   0.12719116   -141.69469 
       0.306      306    124.68719     42.93264     42.93264     42.93264   -122160.66   -121156.93   -122648.75   -122676.29   -56681.114   -56649.448   -62714.815    79133.939    8.0998001    13.988745 -0.0010709113   -141.75455 
       0.307      307    125.00105     42.93264     42.93264     42.93264   -122738.98   -121761.22   -123258.21   -123197.52   -56682.911    -56651.52   -62745.177    79133.939    8.0998001    13.963709  0.025036803   -141.76609 
       0.308      308    125.32437     42.93264     42.93264     42.93264   -123015.79   -122090.77   -123478.97   -123477.65   -56683.894   -56652.776   -62759.831    79133.939    8.0998001    13.970039 -0.0063306392   -141.77748 
[...]
        0.44      440    162.86669     42.93264     42.93264     42.93264   -143193.91   -141480.22   -144676.23   -143425.29   -56747.194   -56748.171    -63819.76    79133.939    8.0998001    12.250653 -0.032143467   -143.45862 
       0.441      441    163.11457     42.93264     42.93264     42.93264   -143139.81    -141427.7   -144687.08   -143304.63   -56747.009   -56748.178   -63816.902    79133.939    8.0998001    12.173058   0.07759588   -143.48482 
       0.442      442    163.35432     42.93264     42.93264     42.93264   -143277.26    -141550.7   -144783.81   -143497.27   -56747.365   -56748.725   -63824.047    79133.939    8.0998001     12.20042 -0.027362146   -143.51035 
       0.443      443    163.49095     42.93264     42.93264     42.93264   -143111.72   -141402.28   -144648.67    -143284.2   -56746.867   -56748.407   -63815.373    79133.939    8.0998001    12.301428   -0.1010084   -143.45141 
       0.444      444     163.6267     42.93264     42.93264     42.93264   -143279.03   -141539.49    -144870.1   -143427.49   -56747.306   -56749.021   -63824.076    79133.939    8.0998001    12.319592 -0.018164186   -143.40046 
       0.445      445    163.79043     42.93264     42.93264     42.93264   -143253.35   -141492.54   -144919.45   -143348.07   -56747.174   -56749.054   -63822.676    79133.939    8.0998001    12.343664 -0.024071627   -143.38224 
       0.446      446    163.96047     42.93264     42.93264     42.93264   -143373.66   -141623.43   -145081.56   -143415.98    -56747.42   -56749.461   -63828.863    79133.939    8.0998001    12.339549 0.0041148533   -143.37537 
       0.447      447     164.0503     42.93264     42.93264     42.93264   -143473.74   -141763.11   -145162.97   -143495.15   -56747.593   -56749.789   -63833.979    79133.939    8.0998001    12.480282  -0.14073306   -143.30394 
       0.448      448    164.16164     42.93264     42.93264     42.93264   -143271.71   -141499.63   -144992.76   -143322.75   -56746.833   -56749.169   -63823.241    79133.939    8.0998001    12.407853  0.072429255   -143.26134 
       0.449      449    164.37769     42.93264     42.93264     42.93264   -143327.37   -141567.28   -145010.75   -143404.06   -56746.925   -56749.397   -63826.082    79133.939    8.0998001     12.35479  0.053063264   -143.31954 
        0.45      450    164.49629     42.93264     42.93264     42.93264   -143304.61   -141548.01   -144979.99   -143385.83   -56746.788   -56749.392   -63824.821    79133.939    8.0998001    12.459181  -0.10439151   -143.29428 
       0.451      451    164.54895     42.93264     42.93264     42.93264   -143378.67   -141618.88   -145040.19   -143476.94   -56746.991   -56749.728   -63828.682    79133.939    8.0998001    12.512774 -0.053592981   -143.21329 
       0.452      452    164.58246     42.93264     42.93264     42.93264   -143437.98   -141637.49   -145072.18   -143604.29   -56747.115   -56749.979   -63831.735    79133.939    8.0998001    12.655096  -0.14232164   -143.11738 
       0.453      453    164.60172     42.93264     42.93264     42.93264   -143537.33   -141749.71   -145162.15   -143700.14   -56747.334   -56750.321   -63836.861    79133.939    8.0998001    12.739209 -0.084113562   -143.01318 
       0.454      454    164.61939     42.93264     42.93264     42.93264   -143400.42   -141659.34   -144974.46   -143567.47    -56746.82   -56749.929   -63829.586    79133.939    8.0998001    12.859576  -0.12036644   -142.90945 
       0.455      455    164.69371     42.93264     42.93264     42.93264   -143561.06    -141776.5   -145248.47    -143658.2   -56747.302   -56750.526   -63838.001    79133.939    8.0998001    12.815791  0.043784932   -142.86357 
       0.456      456     164.8122     42.93264     42.93264     42.93264   -143477.68    -141628.1    -145167.4   -143637.55   -56746.976   -56750.309   -63833.557    79133.939    8.0998001    12.859568 -0.043777436   -142.86189 
       0.457      457    164.94736     42.93264     42.93264     42.93264   -143557.34   -141643.79   -145353.01    -143675.2   -56747.084   -56750.524     -63837.6    79133.939    8.0998001    12.788312  0.071256314   -142.87682 
       0.458      458     165.1276     42.93264     42.93264     42.93264   -143356.25    -141465.5   -145138.94   -143464.31   -56746.515   -56750.061   -63827.099    79133.939    8.0998001    12.761962  0.026349996   -142.93141 
       0.459      459    165.29673     42.93264     42.93264     42.93264    -143264.1   -141410.16   -145014.46   -143367.67   -56746.157   -56749.811   -63822.189    79133.939    8.0998001    12.722974  0.038987461   -142.97354 
        0.46      460    165.43022     42.93264     42.93264     42.93264   -143316.44   -141414.78   -145087.62   -143446.92   -56746.139   -56749.901   -63824.756    79133.939    8.0998001    12.749198  -0.02622353   -142.98363 
       0.461      461    165.57407     42.93264     42.93264     42.93264   -143521.45   -141600.97   -145303.83   -143659.54   -56746.683   -56750.556   -63835.426    79133.939    8.0998001    12.679087  0.070110729    -143.0041 
       0.462      462    165.65939     42.93264     42.93264     42.93264   -143447.22   -141529.58   -145241.57    -143570.5   -56746.339   -56750.319   -63831.415    79133.939    8.0998001    12.809213  -0.13012542   -142.97446 
       0.463      463    165.65203     42.93264     42.93264     42.93264    -143382.2   -141527.44   -145103.97   -143515.21   -56746.063   -56750.144   -63827.928    79133.939    8.0998001    12.895543 -0.086329972   -142.86712 
       0.464      464    165.70033     42.93264     42.93264     42.93264   -143491.67   -141594.76   -145173.65   -143706.62   -56746.386   -56750.565   -63833.658    79133.939    8.0998001    12.916607 -0.021064091   -142.81531 
       0.465      465    165.79473     42.93264     42.93264     42.93264    -143512.5   -141689.55   -145068.68   -143779.27   -56746.378   -56750.643   -63834.679    79133.939    8.0998001    12.913656 0.0029503587   -142.81547 
       0.466      466    165.88084     42.93264     42.93264     42.93264   -143338.88   -141575.67   -144893.61   -143547.37   -56745.844    -56750.19    -63825.57    79133.939    8.0998001    12.944865 -0.031209042   -142.81172 
       0.467      467    165.98535     42.93264     42.93264     42.93264   -143318.04   -141593.34   -144896.38   -143464.39   -56745.778   -56750.199   -63824.474    79133.939    8.0998001    12.889799  0.055066764   -142.82692 
       0.468      468    166.09566     42.93264     42.93264     42.93264   -143374.94   -141649.57   -144920.48   -143554.76   -56745.875    -56750.37   -63827.382    79133.939    8.0998001    12.897516 -0.0077173374   -142.85079 
       0.469      469    166.18141     42.93264     42.93264     42.93264   -143651.74   -141976.66    -145218.7   -143759.86   -56746.606   -56751.178   -63841.784    79133.939    8.0998001     12.89168 0.0058355733   -142.85291 
        0.47      470    166.19914     42.93264     42.93264     42.93264   -143554.45   -141955.03   -145074.23   -143634.08   -56746.191   -56750.835   -63836.564    79133.939    8.0998001    13.020281  -0.12860049   -142.79404 
       0.471      471    166.19676     42.93264     42.93264     42.93264   -143688.23   -142074.71   -145195.92   -143794.06   -56746.431   -56751.158   -63843.412    79133.939    8.0998001    13.056938 -0.036656703   -142.71529 
       0.472      472    166.26438     42.93264     42.93264     42.93264   -143744.96   -142078.25   -145326.72   -143829.91   -56746.528   -56751.332   -63846.311    79133.939    8.0998001    13.054381 0.0025565299   -142.69637 
       0.473      473    166.36774     42.93264     42.93264     42.93264   -143831.58   -142159.17   -145425.32   -143910.25   -56746.696   -56751.582   -63850.757    79133.939    8.0998001    13.016114  0.038266653   -142.70897 
       0.474      474    166.52103     42.93264     42.93264     42.93264    -143558.9   -141887.32   -145217.82   -143571.56   -56745.861   -56750.833   -63836.454    79133.939    8.0998001    12.957656  0.058458876   -142.75894 
       0.475      475    166.66511     42.93264     42.93264     42.93264   -143471.01    -141748.5   -145169.93    -143494.6    -56745.46   -56750.526   -63831.711    79133.939    8.0998001    12.944828  0.012827401   -142.79743 
       0.476      476    166.75233     42.93264     42.93264     42.93264   -143479.06   -141665.41   -145238.88   -143532.89   -56745.388   -56750.554   -63832.037    79133.939    8.0998001    12.999373 -0.054544715   -142.77603 
       0.477      477     166.7996     42.93264     42.93264     42.93264   -143492.59   -141615.79   -145281.52   -143580.46   -56745.322   -56750.596    -63832.64    79133.939    8.0998001    13.068118 -0.068744933   -142.71132 
       0.478      478    166.85695     42.93264     42.93264     42.93264   -143420.17   -141485.78   -145298.73      -143476   -56744.954   -56750.337   -63828.695    79133.939    8.0998001    13.117357 -0.049239546   -142.64903 
       0.479      479     166.9593     42.93264     42.93264     42.93264      -143711   -141741.11   -145623.15   -143768.75   -56745.692   -56751.195   -63843.797    79133.939    8.0998001    13.113538 0.0038195601   -142.62099 
        0.48      480    167.10492     42.93264     42.93264     42.93264   -143723.81   -141747.74   -145598.68   -143825.01   -56745.674   -56751.299   -63844.412    79133.939    8.0998001    13.091489  0.022048883    -142.6288 
       0.481      481    167.22768     42.93264     42.93264     42.93264   -143610.79   -141576.73   -145490.41   -143765.22   -56745.244   -56750.993   -63838.399    79133.939    8.0998001    13.127987 -0.036497653   -142.61511 
       0.482      482    167.29321     42.93264     42.93264     42.93264   -143600.51   -141503.36   -145535.55   -143762.64   -56745.175   -56751.058   -63837.823    79133.939    8.0998001    13.228767  -0.10078011   -142.54136 
       0.483      483    167.40251     42.93264     42.93264     42.93264    -143765.3   -141633.77   -145713.53   -143948.59   -56745.713   -56751.735     -63846.5    79133.939    8.0998001    13.215197  0.013570108    -142.5014 
       0.484      484    167.55642     42.93264     42.93264     42.93264   -143763.08   -141610.49   -145660.69   -144018.04   -56745.689   -56751.851   -63846.367    79133.939    8.0998001    13.247779 -0.032582546   -142.50077 
       0.485      485    167.69234     42.93264     42.93264     42.93264   -143755.99   -141630.46   -145645.37   -143992.14   -56745.626   -56751.927   -63845.953    79133.939    8.0998001    13.273103 -0.025323492    -142.4847 
       0.486      486      167.858     42.93264     42.93264     42.93264   -143719.31   -141698.47    -145564.8   -143894.67   -56745.487   -56751.929   -63844.003    79133.939    8.0998001    13.243934  0.029168373   -142.49131 
       0.487      487    168.02534     42.93264     42.93264     42.93264   -143739.28   -141720.69   -145594.82   -143902.33   -56745.434    -56752.02   -63844.936    79133.939    8.0998001    13.266773 -0.022838692   -142.49412 
       0.488      488    168.18967     42.93264     42.93264     42.93264   -143760.78   -141790.36   -145606.16   -143885.82   -56745.353   -56752.093   -63845.917    79133.939    8.0998001    13.247563  0.019209451   -142.48895 
       0.489      489    168.33027     42.93264     42.93264     42.93264   -143792.13   -141827.46   -145562.98   -143985.96   -56745.506   -56752.406   -63847.619    79133.939    8.0998001    13.317385 -0.069821238     -142.453 
        0.49      490    168.46918     42.93264     42.93264     42.93264   -143630.89   -141678.37    -145375.4    -143838.9   -56745.096   -56752.156   -63839.245    79133.939    8.0998001      13.3132  0.004184816   -142.41429 
       0.491      491     168.5845     42.93264     42.93264     42.93264   -143309.87   -141386.86   -145028.82   -143513.91   -56744.121   -56751.334   -63822.414    79133.939    8.0998001    13.412548 -0.099348261   -142.36136 
       0.492      492    168.74768     42.93264     42.93264     42.93264   -143361.03   -141382.58   -145112.05   -143588.47   -56744.246   -56751.607   -63825.065    79133.939    8.0998001    13.295694   0.11685432   -142.35663 
       0.493      493    168.96941     42.93264     42.93264     42.93264    -143290.3   -141255.17    -145096.5   -143519.22   -56743.962   -56751.462   -63821.288    79133.939    8.0998001    13.276553  0.019140952   -142.41483 
       0.494      494    169.10458     42.93264     42.93264     42.93264   -143323.79   -141273.96   -145126.05   -143571.34   -56743.992   -56751.633   -63822.972    79133.939    8.0998001    13.326802 -0.050249513   -142.39423 
       0.495      495    169.22482     42.93264     42.93264     42.93264    -143479.2   -141464.92   -145293.69      -143679   -56744.274   -56752.064   -63830.931    79133.939    8.0998001     13.35051 -0.023707712    -142.3527 
       0.496      496    169.39809     42.93264     42.93264     42.93264   -143407.58   -141425.29   -145172.47   -143624.99   -56744.078   -56752.028   -63827.197    79133.939    8.0998001    13.337607  0.012903357   -142.34757 
       0.497      497    169.56045     42.93264     42.93264     42.93264   -143368.97   -141407.04   -145121.72   -143578.15   -56743.924   -56752.043   -63825.135    79133.939    8.0998001    13.395535 -0.057927799   -142.32293 
       0.498      498    169.65179     42.93264     42.93264     42.93264    -143426.5   -141432.08   -145177.29   -143670.12   -56744.052   -56752.347   -63828.106    79133.939    8.0998001     13.51837  -0.12283568   -142.22691 
       0.499      499    169.74104     42.93264     42.93264     42.93264   -143260.09   -141212.68   -145083.63   -143483.95   -56743.525       -56752   -63819.359    79133.939    8.0998001    13.596138 -0.077768068   -142.12482 
         0.5      500    169.94572     42.93264     42.93264     42.93264   -143026.24   -140973.79   -144876.04   -143228.88   -56742.685   -56751.344   -63806.969    79133.939    8.0998001    13.521825  0.074313015   -142.12529 
       0.501      501    170.19315     42.93264     42.93264     42.93264   -142957.78   -140972.88   -144783.96    -143116.5   -56742.388   -56751.237   -63803.291    79133.939    8.0998001    13.532585 -0.010759793   -142.15927 
       0.502      502    170.40795     42.93264     42.93264     42.93264   -143088.01   -141087.56   -144918.01   -143258.47   -56742.725   -56751.755    -63810.06    79133.939    8.0998001    13.510892  0.021693465   -142.16517 
       0.503      503    170.68441     42.93264     42.93264     42.93264   -143182.39   -141192.21   -144968.59   -143386.38   -56742.889   -56752.104   -63814.886    79133.939    8.0998001    13.406732   0.10415963   -142.22623 
       0.504      504    170.92287     42.93264     42.93264     42.93264   -143396.71   -141367.95    -145179.1   -143643.09   -56743.562   -56752.961   -63826.144    79133.939    8.0998001    13.450668 -0.043936354   -142.25686 
       0.505      505    171.13764     42.93264     42.93264     42.93264   -143314.26   -141279.13   -145069.82   -143593.84    -56743.34   -56752.919    -63821.85    79133.939    8.0998001     13.39311  0.057558283   -142.26131 
       0.506      506    171.37174     42.93264     42.93264     42.93264   -143514.72   -141424.06   -145354.68   -143765.41   -56743.907    -56753.68   -63832.317    79133.939    8.0998001    13.404748 -0.011638273   -142.28026 
       0.507      507    171.55092     42.93264     42.93264     42.93264   -143476.29   -141360.19   -145356.05   -143712.63   -56743.644   -56753.613   -63830.157    79133.939    8.0998001    13.457548 -0.052799178   -142.25088 
       0.508      508    171.75059     42.93264     42.93264     42.93264   -143451.78   -141359.07    -145310.9   -143685.37   -56743.395   -56753.554   -63828.697    79133.939    8.0998001    13.427841   0.02970621   -142.24571 
       0.509      509    171.95953     42.93264     42.93264     42.93264      -143484   -141347.31   -145365.73   -143738.95   -56743.362   -56753.697   -63830.255    79133.939    8.0998001    13.453034  -0.02519292   -142.25189 
        0.51      510    172.19411     42.93264     42.93264     42.93264   -143696.68   -141632.64   -145510.61   -143946.79   -56743.809    -56754.32   -63841.207    79133.939    8.0998001    13.367984  0.085049965   -142.28198 
       0.511      511    172.42825     42.93264     42.93264     42.93264   -143792.52      -141773   -145592.34   -144012.22   -56744.082   -56754.776   -63846.214    79133.939    8.0998001    13.398478  -0.03049376   -142.30865 
       0.512      512    172.60207     42.93264     42.93264     42.93264   -143728.77   -141809.66   -145422.67   -143953.99   -56743.748   -56754.628   -63842.731    79133.939    8.0998001    13.414614 -0.016135725   -142.28206 
       0.513      513    172.79516     42.93264     42.93264     42.93264   -143757.25   -141797.29   -145469.07   -144005.39   -56743.721   -56754.786   -63844.111    79133.939    8.0998001    13.413424 0.0011901832   -142.27247 
       0.514      514    172.96252     42.93264     42.93264     42.93264   -143691.45   -141660.94   -145418.31   -143995.11   -56743.485   -56754.735   -63840.625    79133.939    8.0998001    13.471593 -0.058169804   -142.24116 
       0.515      515     173.0942     42.93264     42.93264     42.93264    -143825.3   -141772.75    -145511.9   -144191.24    -56743.82    -56755.25   -63847.571    79133.939    8.0998001    13.526004 -0.054411096   -142.18166 
       0.516      516    173.28078     42.93264     42.93264     42.93264   -143937.13    -141899.3   -145616.72   -144295.37   -56743.985   -56755.586   -63853.259    79133.939    8.0998001    13.484037  0.041967876   -142.17421 
       0.517      517    173.49491     42.93264     42.93264     42.93264   -143893.47   -141887.76   -145586.72   -144205.94   -56743.795   -56755.567   -63850.913    79133.939    8.0998001    13.472507  0.011530069   -142.19467 
       0.518      518     173.6472     42.93264     42.93264     42.93264   -143960.36   -141999.11   -145619.27   -144262.69   -56743.934   -56755.873   -63854.355    79133.939    8.0998001    13.523921 -0.051414842   -142.16491 
       0.519      519    173.80333     42.93264     42.93264     42.93264   -143984.01   -142053.21   -145745.32   -144153.48   -56744.026   -56756.121   -63855.616    79133.939    8.0998001    13.510574  0.013346892   -142.14398 
        0.52      520     173.9539     42.93264     42.93264     42.93264   -143969.76   -142110.58   -145697.89   -144100.81    -56743.89   -56756.138   -63854.776    79133.939    8.0998001    13.574492 -0.063917939   -142.12074 
       0.521      521    174.11942     42.93264     42.93264     42.93264   -143937.28   -142122.53   -145649.74   -144039.56   -56743.717   -56756.114   -63852.998    79133.939    8.0998001    13.516593  0.057899007    -142.1196 
       0.522      522    174.30611     42.93264     42.93264     42.93264    -144053.8   -142252.48   -145801.47   -144107.46    -56743.98   -56756.523   -63859.016    79133.939    8.0998001    13.521472 -0.0048781979   -142.14599 
       0.523      523    174.39978     42.93264     42.93264     42.93264   -143920.41   -142173.59   -145669.67   -143917.98   -56743.469   -56756.161   -63851.917    79133.939    8.0998001    13.634025  -0.11255387   -142.08264 
       0.524      524    174.45261     42.93264     42.93264     42.93264      -143799   -141997.34   -145585.17   -143814.48   -56742.952   -56755.796   -63845.404    79133.939    8.0998001     13.72124 -0.087214804   -141.97672 
       0.525      525    174.59111     42.93264     42.93264     42.93264   -144077.62   -142186.23   -145927.63   -144119.01   -56743.679   -56756.678   -63859.892    79133.939    8.0998001 -2.1185685e+211 2.1185685e+211   -141.94227 
ERROR on proc 0: Fix ttm returned negative electron temperature (../fix_ttm.cpp:480)
